LLZ.lmp (written by ASE) 
# Formula: La24Li120O96Zr16
# 1 La
# 2 Li
# 3 O
# 4 Zr
256 	 atoms 
4  atom types
0.0 12.982700000  xlo xhi
0.0 12.982699999  ylo yhi
0.0 12.982699998  zlo zhi


Atoms 

     1   1     3.0        6.491350000      3.245675000     11.359862500
     2   1     3.0               0E-9      9.737025000      4.868512500
     3   1     3.0        6.491350000      9.737025000      8.114187500
     4   1     3.0               0E-9      3.245675000      1.622837500
     5   1     3.0        3.245675000     11.359862500      6.491350000
     6   1     3.0        9.737025000      4.868512500             0E-9
     7   1     3.0        9.737025000      8.114187500      6.491350000
     8   1     3.0        3.245675000      1.622837500             0E-9
     9   1     3.0       11.359862500      6.491350000      3.245675000
    10   1     3.0        4.868512500             0E-9      9.737025000
    11   1     3.0        8.114187500      6.491350000      9.737025000
    12   1     3.0        1.622837500             0E-9      3.245675000
    13   1     3.0               0E-9      3.245675000      8.114187500
    14   1     3.0        6.491350000      9.737025000      1.622837500
    15   1     3.0               0E-9      9.737025000     11.359862500
    16   1     3.0        6.491350000      3.245675000      4.868512500
    17   1     3.0        3.245675000      8.114187500             0E-9
    18   1     3.0        9.737025000      1.622837500      6.491350000
    19   1     3.0        9.737025000     11.359862500             0E-9
    20   1     3.0        3.245675000      4.868512500      6.491350000
    21   1     3.0        8.114187500             0E-9      3.245675000
    22   1     3.0        1.622837500      6.491350000      9.737025000
    23   1     3.0       11.359862500             0E-9      9.737025000
    24   1     3.0        4.868512500      6.491350000      3.245675000
    25   4     4.0        9.737025000      3.245675000      9.737025000
    26   4     4.0        9.737025000      9.737025000      3.245675000
    27   4     4.0        3.245675000      9.737025000      9.737025000
    28   4     4.0        3.245675000      3.245675000      3.245675000
    29   4     4.0        6.491350000      6.491350000             0E-9
    30   4     4.0        6.491350000             0E-9      6.491350000
    31   4     4.0               0E-9      6.491350000      6.491350000
    32   4     4.0               0E-9             0E-9             0E-9
    33   4     4.0        3.245675000      9.737025000      3.245675000
    34   4     4.0        3.245675000      3.245675000      9.737025000
    35   4     4.0        9.737025000      3.245675000      3.245675000
    36   4     4.0        9.737025000      9.737025000      9.737025000
    37   4     4.0               0E-9             0E-9      6.491350000
    38   4     4.0               0E-9      6.491350000             0E-9
    39   4     4.0        6.491350000             0E-9             0E-9
    40   4     4.0        6.491350000      6.491350000      6.491350000
    41   3    -2.0        7.788321730      3.944144260      9.326382199
    42   3    -2.0       11.685728270      9.038555740      2.835032199
    43   3    -2.0        5.194378270     10.435494260     10.147667801
    44   3    -2.0        1.296971730      2.547205740      3.656317801
    45   3    -2.0        3.944144260      9.326382199      7.788321730
    46   3    -2.0        9.038555740      2.835032199     11.685728270
    47   3    -2.0       10.435494260     10.147667801      5.194378270
    48   3    -2.0        2.547205740      3.656317801      1.296971730
    49   3    -2.0        9.326382199      7.788321730      3.944144260
    50   3    -2.0        2.835032199     11.685728270      9.038555740
    51   3    -2.0       10.147667801      5.194378270     10.435494260
    52   3    -2.0        3.656317801      1.296971730      2.547205740
    53   3    -2.0       11.685728270      2.547205740     10.147667801
    54   3    -2.0        7.788321730     10.435494260      3.656317801
    55   3    -2.0        1.296971730      9.038555740      9.326382199
    56   3    -2.0        5.194378270      3.944144260      2.835032199
    57   3    -2.0        2.547205740     10.147667801     11.685728270
    58   3    -2.0       10.435494260      3.656317801      7.788321730
    59   3    -2.0        9.038555740      9.326382199      1.296971730
    60   3    -2.0        3.944144260      2.835032199      5.194378270
    61   3    -2.0       10.147667801     11.685728270      2.547205740
    62   3    -2.0        3.656317801      7.788321730     10.435494260
    63   3    -2.0        9.326382199      1.296971730      9.038555740
    64   3    -2.0        2.835032199      5.194378270      3.944144260
    65   3    -2.0        4.542646730      6.080707199      0.698469260
    66   3    -2.0        8.440053270     12.572057199      5.792880740
    67   3    -2.0        1.948703270      6.901992801      7.189819260
    68   3    -2.0       11.033996730      0.410642801     12.284230740
    69   3    -2.0        0.698469260      4.542646730      6.080707199
    70   3    -2.0        5.792880740      8.440053270     12.572057199
    71   3    -2.0        7.189819260      1.948703270      6.901992801
    72   3    -2.0       12.284230740     11.033996730      0.410642801
    73   3    -2.0        6.080707199      0.698469260      4.542646730
    74   3    -2.0       12.572057199      5.792880740      8.440053270
    75   3    -2.0        6.901992801      7.189819260      1.948703270
    76   3    -2.0        0.410642801     12.284230740     11.033996730
    77   3    -2.0        8.440053270      6.901992801     12.284230740
    78   3    -2.0        4.542646730      0.410642801      7.189819260
    79   3    -2.0       11.033996730      6.080707199      5.792880740
    80   3    -2.0        1.948703270     12.572057199      0.698469260
    81   3    -2.0       12.284230740      8.440053270      6.901992801
    82   3    -2.0        7.189819260      4.542646730      0.410642801
    83   3    -2.0        5.792880740     11.033996730      6.080707199
    84   3    -2.0        0.698469260      1.948703270     12.572057199
    85   3    -2.0        6.901992801     12.284230740      8.440053270
    86   3    -2.0        0.410642801      7.189819260      4.542646730
    87   3    -2.0        6.080707199      5.792880740     11.033996730
    88   3    -2.0       12.572057199      0.698469260      1.948703270
    89   3    -2.0        1.296971730     10.435494260      2.835032199
    90   3    -2.0        5.194378270      2.547205740      9.326382199
    91   3    -2.0       11.685728270      3.944144260      3.656317801
    92   3    -2.0        7.788321730      9.038555740     10.147667801
    93   3    -2.0       10.435494260      2.835032199      1.296971730
    94   3    -2.0        2.547205740      9.326382199      5.194378270
    95   3    -2.0        3.944144260      3.656317801     11.685728270
    96   3    -2.0        9.038555740     10.147667801      7.788321730
    97   3    -2.0        2.835032199      1.296971730     10.435494260
    98   3    -2.0        9.326382199      5.194378270      2.547205740
    99   3    -2.0        3.656317801     11.685728270      3.944144260
   100   3    -2.0       10.147667801      7.788321730      9.038555740
   101   3    -2.0        5.194378270      9.038555740      3.656317801
   102   3    -2.0        1.296971730      3.944144260     10.147667801
   103   3    -2.0        7.788321730      2.547205740      2.835032199
   104   3    -2.0       11.685728270     10.435494260      9.326382199
   105   3    -2.0        9.038555740      3.656317801      5.194378270
   106   3    -2.0        3.944144260     10.147667801      1.296971730
   107   3    -2.0        2.547205740      2.835032199      7.788321730
   108   3    -2.0       10.435494260      9.326382199     11.685728270
   109   3    -2.0        3.656317801      5.194378270      9.038555740
   110   3    -2.0       10.147667801      1.296971730      3.944144260
   111   3    -2.0        2.835032199      7.788321730      2.547205740
   112   3    -2.0        9.326382199     11.685728270     10.435494260
   113   3    -2.0       11.033996730     12.572057199      7.189819260
   114   3    -2.0        1.948703270      6.080707199     12.284230740
   115   3    -2.0        8.440053270      0.410642801      0.698469260
   116   3    -2.0        4.542646730      6.901992801      5.792880740
   117   3    -2.0        7.189819260     11.033996730     12.572057199
   118   3    -2.0       12.284230740      1.948703270      6.080707199
   119   3    -2.0        0.698469260      8.440053270      0.410642801
   120   3    -2.0        5.792880740      4.542646730      6.901992801
   121   3    -2.0       12.572057199      7.189819260     11.033996730
   122   3    -2.0        6.080707199     12.284230740      1.948703270
   123   3    -2.0        0.410642801      0.698469260      8.440053270
   124   3    -2.0        6.901992801      5.792880740      4.542646730
   125   3    -2.0        1.948703270      0.410642801      5.792880740
   126   3    -2.0       11.033996730      6.901992801      0.698469260
   127   3    -2.0        4.542646730     12.572057199     12.284230740
   128   3    -2.0        8.440053270      6.080707199      7.189819260
   129   3    -2.0        5.792880740      1.948703270      0.410642801
   130   3    -2.0        0.698469260     11.033996730      6.901992801
   131   3    -2.0       12.284230740      4.542646730     12.572057199
   132   3    -2.0        7.189819260      8.440053270      6.080707199
   133   3    -2.0        0.410642801      5.792880740      1.948703270
   134   3    -2.0        6.901992801      0.698469260     11.033996730
   135   3    -2.0       12.572057199     12.284230740      4.542646730
   136   3    -2.0        6.080707199      7.189819260      8.440053270
   137   2     1.0        6.491350000      3.245675000      1.622837500
   138   2     1.0               0E-9      9.737025000      8.114187500
   139   2     1.0        6.491350000      9.737025000      4.868512500
   140   2     1.0               0E-9      3.245675000     11.359862500
   141   2     1.0        3.245675000      1.622837500      6.491350000
   142   2     1.0        9.737025000      8.114187500             0E-9
   143   2     1.0        9.737025000      4.868512500      6.491350000
   144   2     1.0        3.245675000     11.359862500             0E-9
   145   2     1.0        1.622837500      6.491350000      3.245675000
   146   2     1.0        8.114187500             0E-9      9.737025000
   147   2     1.0        4.868512500      6.491350000      9.737025000
   148   2     1.0       11.359862500             0E-9      3.245675000
   149   2     1.0               0E-9      3.245675000      4.868512500
   150   2     1.0        6.491350000      9.737025000     11.359862500
   151   2     1.0               0E-9      9.737025000      1.622837500
   152   2     1.0        6.491350000      3.245675000      8.114187500
   153   2     1.0        3.245675000      4.868512500             0E-9
   154   2     1.0        9.737025000     11.359862500      6.491350000
   155   2     1.0        9.737025000      1.622837500             0E-9
   156   2     1.0        3.245675000      8.114187500      6.491350000
   157   2     1.0        4.868512500             0E-9      3.245675000
   158   2     1.0       11.359862500      6.491350000      9.737025000
   159   2     1.0        1.622837500             0E-9      9.737025000
   160   2     1.0        8.114187500      6.491350000      3.245675000
   161   2     1.0        2.296639630     12.232299940     10.982065930
   162   2     1.0        4.194710370      0.750400060      4.490715930
   163   2     1.0       10.686060370      5.740949940      8.491984070
   164   2     1.0        8.787989630      7.241750060      2.000634070
   165   2     1.0       12.232299940     10.982065930      2.296639630
   166   2     1.0        0.750400060      4.490715930      4.194710370
   167   2     1.0        5.740949940      8.491984070     10.686060370
   168   2     1.0        7.241750060      2.000634070      8.787989630
   169   2     1.0       10.982065930      2.296639630     12.232299940
   170   2     1.0        4.490715930      4.194710370      0.750400060
   171   2     1.0        8.491984070     10.686060370      5.740949940
   172   2     1.0        2.000634070      8.787989630      7.241750060
   173   2     1.0        4.194710370      7.241750060      8.491984070
   174   2     1.0        2.296639630      5.740949940      2.000634070
   175   2     1.0        8.787989630      0.750400060     10.982065930
   176   2     1.0       10.686060370     12.232299940      4.490715930
   177   2     1.0        7.241750060      8.491984070      4.194710370
   178   2     1.0        5.740949940      2.000634070      2.296639630
   179   2     1.0        0.750400060     10.982065930      8.787989630
   180   2     1.0       12.232299940      4.490715930     10.686060370
   181   2     1.0        8.491984070      4.194710370      7.241750060
   182   2     1.0        2.000634070      2.296639630      5.740949940
   183   2     1.0       10.982065930      8.787989630      0.750400060
   184   2     1.0        4.490715930     10.686060370     12.232299940
   185   2     1.0       12.033664630      7.736390930      8.986624940
   186   2     1.0        0.949035370      1.245040930     10.487425060
   187   2     1.0        7.440385370      5.246309070      2.495274940
   188   2     1.0        5.542314630     11.737659070      3.996075060
   189   2     1.0        8.986624940     12.033664630      7.736390930
   190   2     1.0       10.487425060      0.949035370      1.245040930
   191   2     1.0        2.495274940      7.440385370      5.246309070
   192   2     1.0        3.996075060      5.542314630     11.737659070
   193   2     1.0        7.736390930      8.986624940     12.033664630
   194   2     1.0        1.245040930     10.487425060      0.949035370
   195   2     1.0        5.246309070      2.495274940      7.440385370
   196   2     1.0       11.737659070      3.996075060      5.542314630
   197   2     1.0        0.949035370      5.246309070      3.996075060
   198   2     1.0       12.033664630     11.737659070      2.495274940
   199   2     1.0        5.542314630      7.736390930     10.487425060
   200   2     1.0        7.440385370      1.245040930      8.986624940
   201   2     1.0        3.996075060      0.949035370      5.246309070
   202   2     1.0        2.495274940     12.033664630     11.737659070
   203   2     1.0       10.487425060      5.542314630      7.736390930
   204   2     1.0        8.986624940      7.440385370      1.245040930
   205   2     1.0        5.246309070      3.996075060      0.949035370
   206   2     1.0       11.737659070      2.495274940     12.033664630
   207   2     1.0        7.736390930     10.487425060      5.542314630
   208   2     1.0        1.245040930      8.986624940      7.440385370
   209   2     1.0        8.787989630      5.740949940      4.490715930
   210   2     1.0       10.686060370      7.241750060     10.982065930
   211   2     1.0        4.194710370     12.232299940      2.000634070
   212   2     1.0        2.296639630      0.750400060      8.491984070
   213   2     1.0        5.740949940      4.490715930      8.787989630
   214   2     1.0        7.241750060     10.982065930     10.686060370
   215   2     1.0       12.232299940      2.000634070      4.194710370
   216   2     1.0        0.750400060      8.491984070      2.296639630
   217   2     1.0        4.490715930      8.787989630      5.740949940
   218   2     1.0       10.982065930     10.686060370      7.241750060
   219   2     1.0        2.000634070      4.194710370     12.232299940
   220   2     1.0        8.491984070      2.296639630      0.750400060
   221   2     1.0       10.686060370      0.750400060      2.000634070
   222   2     1.0        8.787989630     12.232299940      8.491984070
   223   2     1.0        2.296639630      7.241750060      4.490715930
   224   2     1.0        4.194710370      5.740949940     10.982065930
   225   2     1.0        0.750400060      2.000634070     10.686060370
   226   2     1.0       12.232299940      8.491984070      8.787989630
   227   2     1.0        7.241750060      4.490715930      2.296639630
   228   2     1.0        5.740949940     10.982065930      4.194710370
   229   2     1.0        2.000634070     10.686060370      0.750400060
   230   2     1.0        8.491984070      8.787989630     12.232299940
   231   2     1.0        4.490715930      2.296639630      7.241750060
   232   2     1.0       10.982065930      4.194710370      5.740949940
   233   2     1.0        5.542314630      1.245040930      2.495274940
   234   2     1.0        7.440385370      7.736390930      3.996075060
   235   2     1.0        0.949035370     11.737659070      8.986624940
   236   2     1.0       12.033664630      5.246309070     10.487425060
   237   2     1.0        2.495274940      5.542314630      1.245040930
   238   2     1.0        3.996075060      7.440385370      7.736390930
   239   2     1.0        8.986624940      0.949035370     11.737659070
   240   2     1.0       10.487425060     12.033664630      5.246309070
   241   2     1.0        1.245040930      2.495274940      5.542314630
   242   2     1.0        7.736390930      3.996075060      7.440385370
   243   2     1.0       11.737659070      8.986624940      0.949035370
   244   2     1.0        5.246309070     10.487425060     12.033664630
   245   2     1.0        7.440385370     11.737659070     10.487425060
   246   2     1.0        5.542314630      5.246309070      8.986624940
   247   2     1.0       12.033664630      1.245040930      3.996075060
   248   2     1.0        0.949035370      7.736390930      2.495274940
   249   2     1.0       10.487425060      7.440385370     11.737659070
   250   2     1.0        8.986624940      5.542314630      5.246309070
   251   2     1.0        3.996075060     12.033664630      1.245040930
   252   2     1.0        2.495274940      0.949035370      7.736390930
   253   2     1.0       11.737659070     10.487425060      7.440385370
   254   2     1.0        5.246309070      8.986624940      5.542314630
   255   2     1.0        1.245040930      3.996075060     12.033664630
   256   2     1.0        7.736390930      2.495274940      0.949035370


Masses

1 138.9055
2 6.941
3 15.9994
4 91.224
