data.lmp (written by ASE) 
# Formula: La12Li36O48Zr8
# 1 La
# 2 Li
# 3 O
# 4 Zr
104 	 atoms 
4  atom types
0.0 11.090800000  xlo xhi
0.0 10.456520754  ylo yhi
0.0 9.055661923  zlo zhi
-3.696893067 -3.696893067 -5.228174959  xy xz yz


Atoms 

     1   2     1.0        8.318115100      1.960608319      1.131957740
     2   2     1.0        2.772745299      5.881824956      3.395873221
     3   2     1.0       -2.772654701      7.842411920      2.263915481
     4   2     1.0       -0.924177968      2.614194251      6.791746442
     5   2     1.0       -0.924193067     -3.267587996      7.923704183
     6   2     1.0        4.621206933      0.653585933      5.659788702
     7   2     1.0        4.621206933      8.495933790      1.131957740
     8   2     1.0       -0.924193067      4.574759861      3.395873221
     9   2     1.0        4.621191833      2.614151543      2.263915481
    10   2     1.0        6.469668566     -2.614066126      6.791746442
    11   2     1.0       -4.621101235      3.267737475      7.923704183
    12   2     1.0        0.924268566     -0.653479162      5.659788702
    13   2     1.0       -2.772639601      3.017820872      7.313352569
    14   2     1.0        0.072505587      1.005976439      6.270140316
    15   2     1.0        0.924253466     -1.710649007      4.006224835
    16   2     1.0       -1.920891722      8.143543284      0.521606127
    17   2     1.0        5.472978053     -1.005858154      6.270140316
    18   2     1.0       -2.772662843     -3.017682907      7.313352569
    19   2     1.0        4.621199975      1.710724584      4.006224835
    20   2     1.0        3.769405612      2.312987311      0.521606127
    21   2     1.0        3.769435812      7.137642421      2.263915481
    22   2     1.0       -1.920898680      3.318921042      2.263915481
    23   2     1.0        8.318106958      0.000009840      1.043212254
    24   2     1.0        0.924276708      5.228293246      3.484618708
    25   2     1.0        6.469653466      2.210524922      1.742309354
    26   2     1.0        3.624508278      4.222369355      2.785521608
    27   2     1.0        2.772760399      6.938994801      5.049437088
    28   2     1.0        5.617905587     -2.915197490      8.534055797
    29   2     1.0       -1.775964188      6.234203948      2.785521608
    30   2     1.0        6.469676708      8.246028701      1.742309354
    31   2     1.0       -0.924186109      3.517621210      5.049437088
    32   2     1.0       -0.072391747      2.915358483      8.534055797
    33   2     1.0       -0.072421947     -1.909296627      6.791746442
    34   2     1.0        5.617912545      1.909424752      6.791746442
    35   2     1.0       -4.621093093      5.228335954      8.012449670
    36   2     1.0        2.772737157      0.000052548      5.571043215
    37   3    -2.0        0.184363881      2.990022737      3.489055982
    38   3    -2.0        2.757584208      9.012851015      1.038774979
    39   3    -2.0       -0.622755000      5.162451442      1.575775731
    40   3    -2.0        8.771727708     -1.480458646      2.952055230
    41   3    -2.0        1.377878588      0.682694837      4.333949240
    42   3    -2.0        0.184366467      9.368992142      0.193881722
    43   3    -2.0       -4.319657817      1.397644804      8.324779449
    44   3    -2.0       -0.939359508     -0.992640196      5.258713435
    45   3    -2.0        2.757570352      2.436395352      2.758173509
    46   3    -2.0        5.074795262      0.797849226      1.769657453
    47   3    -2.0       -4.319669087     -1.331665036      8.210768666
    48   3    -2.0        7.578224271     -1.902408708      5.372724219
    49   3    -2.0        1.664189594      7.466563837      3.489055982
    50   3    -2.0       -0.909063419      1.443689336      1.038774979
    51   3    -2.0        7.864511670      1.480514336      2.952055230
    52   3    -2.0        2.471282952      5.294099039      1.575775731
    53   3    -2.0        4.167579224     -0.682613078      4.333949240
    54   3    -2.0        1.664143052      1.087532270      0.193881722
    55   3    -2.0        6.484829657      0.992739400      5.258713435
    56   3    -2.0       -1.225631135     -1.397487759      8.324779449
    57   3    -2.0       -0.909026626      8.020177435      2.758173509
    58   3    -2.0        0.470628344     -0.797815841      1.769657453
    59   3    -2.0       -2.032752602      1.902510064      5.372724219
    60   3    -2.0       -1.225621385      1.331819930      8.210768666
    61   3    -2.0        3.512649984      2.238323057      5.566605941
    62   3    -2.0        0.939429657     -3.784505221      8.016886944
    63   3    -2.0        4.319768865      0.065894351      7.479886192
    64   3    -2.0       -5.074713843      6.708804440      6.103606693
    65   3    -2.0        2.319135277      4.545650957      4.721712683
    66   3    -2.0        3.512647398     -4.140646348      8.861780202
    67   3    -2.0        8.016671682      3.830700990      0.730882474
    68   3    -2.0        4.636373374      6.220985989      3.796948488
    69   3    -2.0        0.939443514      2.791950442      6.297488415
    70   3    -2.0       -1.377781397      4.430496568      7.286004470
    71   3    -2.0        8.016682952      6.560010830      0.844893257
    72   3    -2.0       -3.881210406      7.130754502      3.682937704
    73   3    -2.0        2.032824271     -2.238218044      5.566605941
    74   3    -2.0        4.606077284      3.784656458      8.016886944
    75   3    -2.0       -4.167497805      3.747831458      6.103606693
    76   3    -2.0        1.225730913     -0.065753245      7.479886192
    77   3    -2.0       -0.470565359      5.910958872      4.721712683
    78   3    -2.0        2.032870814      4.140813524      8.861780202
    79   3    -2.0       -2.787815792      4.235606394      3.796948488
    80   3    -2.0        4.922645000      6.625833553      0.730882474
    81   3    -2.0        4.606040492     -2.791831641      6.297488415
    82   3    -2.0        3.226385521      6.026161635      7.286004470
    83   3    -2.0        5.729766467      3.325835730      3.682937704
    84   3    -2.0        4.922635251      3.896525863      0.844893257
    85   1     3.0        0.924253466      3.267673413      1.131957740
    86   1     3.0        6.469653466     -0.653500516      3.395873221
    87   1     3.0       -0.924208167      0.653564578      3.395873221
    88   1     3.0        0.924268566      7.188868696      1.131957740
    89   1     3.0        2.772715100      0.000021354      2.263915481
    90   1     3.0       -2.772654701      0.000064062      6.791746442
    91   1     3.0        2.772760399      1.960672381      7.923704183
    92   1     3.0       -2.772639601      5.881846310      5.659788702
    93   1     3.0        4.621222032      4.574781215      5.659788702
    94   1     3.0        2.772745299     -1.960522902      7.923704183
    95   1     3.0        0.924298765      5.228324440      6.791746442
    96   1     3.0        6.469668566      5.228281731      2.263915481
    97   4     4.0               0E-9             0E-9             0E-9
    98   4     4.0        3.696953466     -2.614087480      4.527830962
    99   4     4.0        3.696953466      5.228260377             0E-9
   100   4     4.0       -3.696893067      2.614172897      4.527830962
   101   4     4.0        5.545400000             0E-9             0E-9
   102   4     4.0        1.848506933      2.614172897      4.527830962
   103   4     4.0       -1.848446534     -2.614087480      4.527830962
   104   4     4.0       -1.848446534      5.228260377             0E-9


Masses

1 138.9055
2 6.941
3 15.9994
4 91.224
