ITEM: TIMESTEP
0
ITEM: NUMBER OF ATOMS
104
ITEM: BOX BOUNDS xy xz yz pp pp pp
-7.39379 11.0908 -3.69689
-5.22817 10.4565 -3.69689
0 9.05566 -5.22817
ITEM: ATOMS id type fx fy fz 
97 4 -1.79869e-08 -2.82278e-08 3.42219e-09 
101 4 -5.13914e-08 -4.58776e-08 1.36214e-08 
1 2 0.0887638 0.0319296 -0.123714 
2 2 0.0844165 0.0981544 -0.0875144 
3 2 0.0564456 0.0205327 -0.143452 
4 2 -0.00282211 0.0672805 -0.140992 
5 2 0.053893 0.120141 -0.0881701 
6 2 -0.00250405 0.100263 -0.122745 
7 2 -0.053893 -0.120141 0.0881701 
8 2 0.00250404 -0.100263 0.122745 
9 2 0.00282212 -0.0672805 0.140992 
10 2 -0.0564456 -0.0205327 0.143452 
11 2 -0.0887638 -0.0319296 0.123714 
12 2 -0.0844165 -0.0981544 0.0875144 
13 2 0.0129078 0.643654 -0.468672 
14 2 0.56411 0.199453 0.345451 
15 2 -0.0749388 -0.665591 0.430688 
16 2 -0.557592 -0.197143 -0.341462 
17 2 -0.606519 -0.231907 0.466421 
18 2 0.00219233 -0.604033 -0.3469 
19 2 0.00289888 0.587035 0.340759 
20 2 0.609992 0.290493 -0.43054 
21 2 0.555904 -0.389457 0.00144834 
22 2 -0.567241 0.404255 0.000878148 
23 2 0.0693234 0.0419684 -0.795401 
24 2 -0.0112449 -0.0788001 0.797202 
25 2 -0.0129078 -0.643654 0.468672 
26 2 -0.56411 -0.199453 -0.345451 
27 2 0.0749388 0.665591 -0.430688 
28 2 0.557592 0.197143 0.341462 
29 2 0.606519 0.231907 -0.466421 
30 2 -0.00219233 0.604033 0.3469 
31 2 -0.00289889 -0.587035 -0.340759 
32 2 -0.609992 -0.290493 0.43054 
33 2 -0.555904 0.389457 -0.00144834 
34 2 0.567241 -0.404255 -0.000878149 
35 2 -0.0693234 -0.0419684 0.795401 
36 2 0.0112449 0.0788001 -0.797202 
37 3 -2.83295 2.25163 -0.446036 
38 3 3.16048 -1.67693 -0.161956 
39 3 0.0173433 -0.295627 3.9107 
40 3 0.0396408 0.147352 -3.81518 
41 3 -0.293228 -3.35058 2.0259 
42 3 -2.62766 -1.07805 -2.17878 
43 3 0.114986 3.25216 -1.98477 
44 3 3.06214 1.3532 1.43868 
45 3 3.04366 1.11963 -2.02472 
46 3 -0.127877 3.29742 1.36665 
47 3 0.249158 -2.92048 -2.17202 
48 3 -3.05616 -1.06037 2.21778 
49 3 2.62804 -2.41368 0.163913 
50 3 -3.06714 1.9241 0.446364 
51 3 0.292118 0.0834266 -3.91 
52 3 -0.110859 -0.0827429 3.82075 
53 3 0.130709 2.84044 2.1774 
54 3 3.05969 1.38356 -2.02654 
55 3 -3.03246 -1.20554 1.98255 
56 3 -0.246947 -3.3404 -1.43996 
57 3 -3.16295 -0.969271 -1.36695 
58 3 -0.049163 -3.22882 2.02491 
59 3 2.8336 0.731034 2.17158 
60 3 -0.0232306 3.23886 -2.21967 
61 3 2.83295 -2.25163 0.446036 
62 3 -3.16048 1.67693 0.161956 
63 3 -0.0173434 0.295627 -3.9107 
64 3 -0.0396408 -0.147352 3.81518 
65 3 0.293228 3.35058 -2.0259 
66 3 2.62766 1.07805 2.17878 
67 3 -0.114986 -3.25216 1.98477 
68 3 -3.06214 -1.3532 -1.43868 
69 3 -3.04366 -1.11963 2.02472 
70 3 0.127877 -3.29742 -1.36665 
71 3 -0.249158 2.92048 2.17202 
72 3 3.05616 1.06037 -2.21778 
73 3 -2.62804 2.41368 -0.163913 
74 3 3.06714 -1.9241 -0.446364 
75 3 -0.292118 -0.0834266 3.91 
76 3 0.110859 0.0827426 -3.82075 
77 3 -0.130709 -2.84044 -2.1774 
78 3 -3.05969 -1.38356 2.02654 
79 3 3.03246 1.20554 -1.98255 
80 3 0.246947 3.3404 1.43996 
81 3 3.16295 0.969271 1.36695 
82 3 0.049163 3.22882 -2.02491 
83 3 -2.8336 -0.731034 -2.17158 
84 3 0.0232306 -3.23886 2.21967 
85 1 -0.163163 -0.0577433 -0.0998851 
86 1 0.0125723 0.00451297 0.00766915 
87 1 -0.00734361 0.190622 0.104358 
88 1 0.000501938 -0.0133602 -0.0110767 
89 1 -0.0152261 0.00821678 0.00216508 
90 1 0.17268 -0.132233 -0.00321259 
91 1 0.163163 0.0577433 0.0998851 
92 1 -0.0125723 -0.00451298 -0.00766916 
93 1 0.00734351 -0.190622 -0.104358 
94 1 -0.000501935 0.0133602 0.0110767 
95 1 0.0152261 -0.00821679 -0.00216507 
96 1 -0.17268 0.132233 0.0032126 
98 4 3.3877e-08 -5.00768e-09 -1.02789e-08 
99 4 3.58972e-08 -8.33214e-08 2.57591e-08 
100 4 -4.46665e-08 7.48555e-09 -5.29539e-08 
102 4 -5.1043e-08 -3.76271e-09 -4.04622e-08 
103 4 1.2151e-09 -2.11453e-08 -5.60484e-08 
104 4 -1.84231e-09 -5.26684e-08 7.12081e-09 
ITEM: TIMESTEP
100
ITEM: NUMBER OF ATOMS
104
ITEM: BOX BOUNDS xy xz yz pp pp pp
-7.39379 11.0908 -3.69689
-5.22817 10.4565 -3.69689
0 9.05566 -5.22817
ITEM: ATOMS id type fx fy fz 
97 4 2.1011e-07 -4.41263e-07 4.88663e-07 
101 4 -3.5184e-08 -1.66563e-07 -4.84679e-07 
1 2 -0.216386 0.515295 0.55531 
2 2 -0.214334 -0.72107 -0.179396 
3 2 -0.624165 0.371195 0.305627 
4 2 0.558024 -0.448076 0.293458 
5 2 -0.617207 -0.442696 -0.157685 
6 2 0.543302 -0.0323766 0.552934 
7 2 0.617207 0.442696 0.157685 
8 2 -0.543302 0.0323765 -0.552935 
9 2 -0.558024 0.448076 -0.293459 
10 2 0.624165 -0.371195 -0.305627 
11 2 0.216387 -0.515295 -0.55531 
12 2 0.214334 0.72107 0.179397 
13 2 -0.481373 0.399094 0.141346 
14 2 0.303438 0.107329 0.185848 
15 2 0.143082 -0.518706 -0.348415 
16 2 -0.7725 -0.273116 -0.47307 
17 2 -0.541588 0.323674 -0.148282 
18 2 0.000121867 -0.329432 -0.190662 
19 2 -0.00352817 0.808876 0.459789 
20 2 0.53948 0.0348024 0.34631 
21 2 0.755475 -0.542952 0.000733726 
22 2 -0.310905 0.219578 0.000365161 
23 2 -0.149021 -0.567849 -0.274684 
24 2 0.479073 0.325308 0.277378 
25 2 0.481372 -0.399094 -0.141346 
26 2 -0.303438 -0.107329 -0.185848 
27 2 -0.143081 0.518706 0.348415 
28 2 0.772501 0.273116 0.47307 
29 2 0.541587 -0.323674 0.148281 
30 2 -0.000121459 0.329432 0.190662 
31 2 0.00352824 -0.808875 -0.459788 
32 2 -0.53948 -0.0348025 -0.34631 
33 2 -0.755474 0.542952 -0.00073371 
34 2 0.310905 -0.219578 -0.00036528 
35 2 0.149022 0.567848 0.274684 
36 2 -0.479073 -0.325308 -0.277378 
37 3 1.01017 0.715983 1.75551 
38 3 0.797089 -1.33147 0.479146 
39 3 -1.16787 0.905328 -0.0577733 
40 3 -0.0970717 -1.23474 0.305393 
41 3 1.25247 0.443127 0.659872 
42 3 -1.52566 -0.578579 -0.0275575 
43 3 -1.12449 -0.0155167 0.587654 
44 3 0.352898 -2.12267 -0.171064 
45 3 0.372836 0.0345753 1.23161 
46 3 -0.03446 0.832264 1.38624 
47 3 -2.11192 0.32368 0.252433 
48 3 -0.00932657 -1.22566 -0.81621 
49 3 1.5129 -0.309629 -0.481164 
50 3 -0.345244 -1.19254 -1.75723 
51 3 -1.24745 0.781554 0.0468795 
52 3 1.14608 0.502434 -0.301394 
53 3 0.0291866 1.62347 0.0270023 
54 3 -0.00970896 -1.32171 -0.663511 
55 3 -0.365014 1.07109 -0.588401 
56 3 2.10741 0.386268 0.153714 
57 3 -0.803725 -0.244974 -1.39886 
58 3 0.0975724 -0.347651 -1.21677 
59 3 -1.02265 1.88598 -0.239068 
60 3 1.16478 0.411743 0.820517 
61 3 -1.01017 -0.715983 -1.75551 
62 3 -0.797089 1.33147 -0.479146 
63 3 1.16787 -0.905329 0.0577741 
64 3 0.0970719 1.23474 -0.305393 
65 3 -1.25248 -0.443127 -0.659871 
66 3 1.52565 0.57858 0.0275574 
67 3 1.12449 0.0155175 -0.587655 
68 3 -0.352899 2.12267 0.171064 
69 3 -0.372837 -0.0345758 -1.23161 
70 3 0.0344597 -0.832263 -1.38624 
71 3 2.11192 -0.32368 -0.252433 
72 3 0.00932647 1.22566 0.816209 
73 3 -1.5129 0.309628 0.481164 
74 3 0.345244 1.19254 1.75723 
75 3 1.24745 -0.781554 -0.0468791 
76 3 -1.14608 -0.502435 0.301394 
77 3 -0.0291865 -1.62347 -0.0270023 
78 3 0.00970905 1.32171 0.663512 
79 3 0.365014 -1.07109 0.588402 
80 3 -2.10741 -0.386268 -0.153713 
81 3 0.803726 0.244973 1.39886 
82 3 -0.0975733 0.347651 1.21677 
83 3 1.02265 -1.88598 0.239068 
84 3 -1.16478 -0.411744 -0.820517 
85 1 -0.100557 -0.0355115 -0.0615764 
86 1 0.0579861 0.0204569 0.035555 
87 1 -0.000880601 0.0713766 0.0450498 
88 1 0.00173445 -0.0598192 -0.0242671 
89 1 -0.0473953 0.0436535 -0.00378095 
90 1 0.0701345 -0.0468566 -0.00260453 
91 1 0.100557 0.0355114 0.0615761 
92 1 -0.0579859 -0.0204569 -0.0355552 
93 1 0.000880032 -0.0713767 -0.04505 
94 1 -0.0017347 0.0598197 0.024267 
95 1 0.0473957 -0.0436528 0.00378018 
96 1 -0.0701342 0.0468563 0.00260415 
98 4 -6.77796e-07 1.2503e-07 -2.02432e-08 
99 4 -1.58099e-07 1.17665e-07 -1.95543e-07 
100 4 7.74798e-07 1.0652e-06 -4.51971e-07 
102 4 2.21233e-07 2.27787e-07 -5.75283e-07 
103 4 2.14267e-07 1.66912e-06 7.76546e-07 
104 4 -3.70635e-07 -2.97654e-07 -6.19648e-08 
ITEM: TIMESTEP
200
ITEM: NUMBER OF ATOMS
104
ITEM: BOX BOUNDS xy xz yz pp pp pp
-7.39379 11.0908 -3.69689
-5.22817 10.4565 -3.69689
0 9.05566 -5.22817
ITEM: ATOMS id type fx fy fz 
97 4 -9.25527e-07 -1.39083e-06 1.23057e-06 
101 4 -1.1266e-06 -1.2873e-06 6.71468e-07 
1 2 -0.202321 0.0481484 -0.15996 
2 2 -0.220024 0.084044 -0.127208 
3 2 0.175544 0.181911 0.0714793 
4 2 0.137718 0.210885 0.0919215 
5 2 0.135708 -0.15868 -0.12286 
6 2 0.129861 -0.160788 -0.126583 
7 2 -0.135709 0.158679 0.12286 
8 2 -0.129862 0.160788 0.126582 
9 2 -0.137718 -0.210885 -0.0919218 
10 2 -0.175545 -0.18191 -0.0714794 
11 2 0.202321 -0.0481491 0.15996 
12 2 0.220024 -0.0840428 0.127209 
13 2 0.0899308 0.765714 -0.0650565 
14 2 0.385077 0.135967 0.235841 
15 2 0.337928 -0.614614 0.326999 
16 2 -0.209338 -0.074089 -0.128221 
17 2 -0.689841 -0.317746 0.060174 
18 2 0.018002 -0.412094 -0.227047 
19 2 0.00356648 0.244835 0.142476 
20 2 0.69642 -0.115862 -0.297203 
21 2 0.233026 -0.161346 0.00230057 
22 2 -0.373662 0.286307 0.00908963 
23 2 -0.330658 -0.0431421 -0.684979 
24 2 -0.065073 0.339002 0.683583 
25 2 -0.0899305 -0.765714 0.065056 
26 2 -0.385077 -0.135968 -0.235841 
27 2 -0.337928 0.614614 -0.327 
28 2 0.209339 0.0740897 0.128222 
29 2 0.689841 0.317746 -0.060174 
30 2 -0.0180012 0.412093 0.227047 
31 2 -0.00356675 -0.244836 -0.142476 
32 2 -0.696419 0.115862 0.297204 
33 2 -0.233025 0.161346 -0.00230035 
34 2 0.373663 -0.286308 -0.00908986 
35 2 0.330658 0.0431429 0.684979 
36 2 0.0650734 -0.339002 -0.683583 
37 3 1.44791 -1.5777 -0.337606 
38 3 -2.26597 1.76861 -1.10139 
39 3 -0.245849 -0.207893 -1.95912 
40 3 1.07032 0.141005 1.77545 
41 3 -0.108165 1.88054 -0.723733 
42 3 2.43654 1.72942 0.764583 
43 3 -0.196616 -2.06037 -0.0303948 
44 3 -1.98229 -0.11684 -0.88399 
45 3 -1.8613 0.466006 0.747526 
46 3 0.808591 -2.13908 -2.08566 
47 3 0.537801 1.72103 1.21518 
48 3 1.79592 0.355189 -0.77974 
49 3 -2.44191 1.56197 1.08576 
50 3 1.98273 -0.829984 0.328112 
51 3 0.129661 0.325594 1.9586 
52 3 0.209559 -1.05018 -1.75895 
53 3 -0.820883 -2.85979 -0.788486 
54 3 -1.77969 -0.508209 0.718874 
55 3 1.87307 0.899461 0.0269154 
56 3 -0.537131 1.89956 0.895731 
57 3 2.25183 -0.0715738 2.10627 
58 3 -1.06142 1.61534 -0.740339 
59 3 -1.43767 -1.09213 -1.21054 
60 3 0.259554 -1.827 0.816658 
61 3 -1.44791 1.5777 0.337606 
62 3 2.26597 -1.76861 1.10139 
63 3 0.245849 0.207894 1.95912 
64 3 -1.07032 -0.141005 -1.77545 
65 3 0.108166 -1.88054 0.723732 
66 3 -2.43654 -1.72942 -0.764583 
67 3 0.196617 2.06037 0.0303948 
68 3 1.98229 0.116839 0.883991 
69 3 1.86131 -0.466005 -0.747526 
70 3 -0.808592 2.13908 2.08566 
71 3 -0.5378 -1.72103 -1.21518 
72 3 -1.79592 -0.355189 0.77974 
73 3 2.44191 -1.56197 -1.08576 
74 3 -1.98273 0.829984 -0.328113 
75 3 -0.129661 -0.325592 -1.9586 
76 3 -0.20956 1.05018 1.75895 
77 3 0.820883 2.85979 0.788486 
78 3 1.77969 0.50821 -0.718875 
79 3 -1.87307 -0.899461 -0.0269151 
80 3 0.53713 -1.89956 -0.89573 
81 3 -2.25183 0.0715739 -2.10627 
82 3 1.06142 -1.61534 0.740339 
83 3 1.43767 1.09213 1.21054 
84 3 -0.259554 1.827 -0.816658 
85 1 -0.382797 -0.135178 -0.234479 
86 1 -0.100577 -0.035649 -0.0616266 
87 1 -0.0228242 0.446006 0.265807 
88 1 0.00640468 0.124685 0.0784826 
89 1 0.125154 -0.0784108 0.00189806 
90 1 0.419842 -0.30578 -0.0226097 
91 1 0.382797 0.135178 0.234479 
92 1 0.100577 0.0356495 0.0616264 
93 1 0.0228236 -0.446005 -0.265807 
94 1 -0.00640504 -0.124685 -0.0784828 
95 1 -0.125154 0.0784103 -0.0018976 
96 1 -0.419843 0.30578 0.0226091 
98 4 -1.56064e-06 -2.61281e-07 1.82892e-06 
99 4 1.4423e-06 6.23066e-07 -9.26706e-07 
100 4 4.33635e-07 -1.34851e-06 -2.66151e-06 
102 4 3.45456e-07 -1.28566e-06 7.2892e-07 
103 4 -5.52069e-07 5.23713e-07 -3.60712e-08 
104 4 -1.63141e-06 -1.76313e-06 7.29589e-07 
ITEM: TIMESTEP
300
ITEM: NUMBER OF ATOMS
104
ITEM: BOX BOUNDS xy xz yz pp pp pp
-7.39379 11.0908 -3.69689
-5.22817 10.4565 -3.69689
0 9.05566 -5.22817
ITEM: ATOMS id type fx fy fz 
97 4 -1.13237e-06 -1.251e-06 -3.96547e-06 
101 4 6.39478e-07 -2.24874e-06 -3.18078e-08 
1 2 -0.0823532 -0.652175 -0.986203 
2 2 -0.0329763 1.18729 0.0656722 
3 2 1.14003 -0.219753 -0.238416 
4 2 -0.601729 0.986475 -0.282816 
5 2 1.15037 0.339187 0.113083 
6 2 -0.635362 -0.293293 -0.980602 
7 2 -1.15037 -0.339186 -0.113085 
8 2 0.635363 0.293294 0.980602 
9 2 0.601729 -0.986476 0.282816 
10 2 -1.14003 0.219754 0.238417 
11 2 0.0823526 0.652175 0.986204 
12 2 0.0329765 -1.1873 -0.065672 
13 2 0.457941 0.7499 -0.62125 
14 2 0.489741 0.173116 0.299812 
15 2 -0.00120142 -0.58838 0.901646 
16 2 0.414906 0.14686 0.25416 
17 2 -0.538972 -0.677183 0.610461 
18 2 -0.0122954 -0.541823 -0.308221 
19 2 -0.00652469 -0.368791 -0.213356 
20 2 0.533397 0.17806 -0.945661 
21 2 -0.349611 0.24238 -0.00505552 
22 2 -0.511743 0.35703 -0.0123345 
23 2 -0.000579288 0.487001 -0.9408 
24 2 -0.510502 -0.169721 0.959472 
25 2 -0.457939 -0.749899 0.62125 
26 2 -0.489741 -0.173116 -0.299813 
27 2 0.00119997 0.588381 -0.901647 
28 2 -0.414906 -0.146859 -0.254159 
29 2 0.538973 0.677183 -0.610461 
30 2 0.012295 0.541824 0.308222 
31 2 0.00652455 0.368791 0.213354 
32 2 -0.533398 -0.178059 0.945662 
33 2 0.349613 -0.242381 0.00505463 
34 2 0.511741 -0.357029 0.0123341 
35 2 0.000579027 -0.487002 0.9408 
36 2 0.510502 0.169722 -0.959473 
37 3 -0.102477 -1.63068 -1.79264 
38 3 -2.11388 2.81959 -1.44312 
39 3 0.288085 -1.34169 -0.38024 
40 3 1.6964 0.859802 -0.0997007 
41 3 -1.38273 0.492642 -0.054415 
42 3 3.38491 1.84107 0.173413 
43 3 0.229918 -0.858339 -1.77665 
44 3 -1.5225 1.85062 -0.375422 
45 3 -0.821439 1.53247 -0.849725 
46 3 0.562384 -2.0641 -3.17178 
47 3 2.27838 0.741189 0.499063 
48 3 0.90206 0.617769 0.944554 
49 3 -3.37545 1.06979 1.44886 
50 3 1.51616 0.601195 1.82509 
51 3 1.36366 0.183086 0.441633 
52 3 -0.24559 -1.90898 0.196196 
53 3 -0.554182 -3.76265 -0.190147 
54 3 -0.846523 1.14419 0.0381401 
55 3 0.889893 0.0553662 1.6834 
56 3 -2.26609 0.793235 0.342127 
57 3 2.1377 0.111636 3.20865 
58 3 -1.77849 0.310192 0.829047 
59 3 0.0579124 -2.36824 -0.521394 
60 3 -0.272606 -1.07905 -0.958649 
61 3 0.102475 1.63068 1.79264 
62 3 2.11388 -2.81959 1.44312 
63 3 -0.288085 1.34169 0.380241 
64 3 -1.6964 -0.859803 0.0997025 
65 3 1.38273 -0.492638 0.0544145 
66 3 -3.38491 -1.84107 -0.173415 
67 3 -0.229918 0.858336 1.77665 
68 3 1.5225 -1.85062 0.375422 
69 3 0.821437 -1.53247 0.849727 
70 3 -0.562383 2.0641 3.17178 
71 3 -2.27838 -0.741188 -0.499064 
72 3 -0.902059 -0.617769 -0.944554 
73 3 3.37545 -1.06979 -1.44886 
74 3 -1.51616 -0.601193 -1.82509 
75 3 -1.36366 -0.183082 -0.441633 
76 3 0.245589 1.90898 -0.196199 
77 3 0.554183 3.76265 0.190149 
78 3 0.846523 -1.14419 -0.0381393 
79 3 -0.889892 -0.0553659 -1.6834 
80 3 2.26609 -0.793234 -0.342126 
81 3 -2.1377 -0.111638 -3.20865 
82 3 1.77849 -0.310193 -0.829046 
83 3 -0.0579138 2.36824 0.521394 
84 3 0.272606 1.07905 0.958648 
85 1 0.0144328 0.00502161 0.00822315 
86 1 -0.363739 -0.128734 -0.222743 
87 1 -0.0159034 -0.0248814 -0.00998274 
88 1 -0.0261859 0.440403 0.245405 
89 1 0.399534 -0.308728 -0.0171025 
90 1 -0.0253112 0.00991534 -0.0149113 
91 1 -0.0144315 -0.00502175 -0.00822347 
92 1 0.363739 0.128735 0.222742 
93 1 0.0159034 0.0248811 0.00998278 
94 1 0.0261855 -0.440403 -0.245406 
95 1 -0.399533 0.308728 0.0171037 
96 1 0.02531 -0.00991465 0.0149108 
98 4 -7.24403e-07 -1.39992e-07 -1.34308e-06 
99 4 6.08879e-07 -1.11318e-06 2.51087e-06 
100 4 3.6123e-07 -3.95003e-06 -1.4511e-06 
102 4 2.40797e-06 -2.29649e-06 4.29662e-07 
103 4 1.9971e-06 1.64552e-06 -2.25874e-06 
104 4 2.10039e-06 6.28696e-07 -1.30768e-06 
ITEM: TIMESTEP
400
ITEM: NUMBER OF ATOMS
104
ITEM: BOX BOUNDS xy xz yz pp pp pp
-7.39379 11.0908 -3.69689
-5.22817 10.4565 -3.69689
0 9.05566 -5.22817
ITEM: ATOMS id type fx fy fz 
97 4 2.66335e-06 -2.56843e-07 -9.43886e-07 
101 4 5.71139e-06 2.29319e-06 2.95853e-06 
1 2 0.329599 0.252817 0.849772 
2 2 0.353261 -0.825125 0.19394 
3 2 -0.922484 -0.189367 0.0822151 
4 2 0.113251 -0.909596 0.04684 
5 2 -0.929532 0.0940561 0.251957 
6 2 0.0596479 0.44322 0.858135 
7 2 0.929529 -0.0940579 -0.251959 
8 2 -0.0596488 -0.443222 -0.858139 
9 2 -0.113255 0.9096 -0.0468393 
10 2 0.922478 0.189369 -0.0822148 
11 2 -0.3296 -0.252816 -0.849768 
12 2 -0.353262 0.825128 -0.193936 
13 2 -0.274514 0.119516 -0.0242084 
14 2 -0.212197 -0.0751491 -0.130041 
15 2 -0.0552298 -0.236214 -0.177661 
16 2 -1.25342 -0.443036 -0.767011 
17 2 -0.172273 0.171122 0.00277053 
18 2 0.00902719 0.197607 0.106602 
19 2 -0.0140658 1.34517 0.75841 
20 2 0.166645 0.119701 0.164768 
21 2 1.24895 -0.908297 -0.00255973 
22 2 0.182453 -0.129325 0.01107 
23 2 0.025817 -0.222827 -0.0921299 
24 2 0.246055 0.026321 0.0875523 
25 2 0.27452 -0.119519 0.0242098 
26 2 0.212196 0.0751461 0.130039 
27 2 0.0552252 0.236207 0.177658 
28 2 1.25342 0.443043 0.767004 
29 2 0.172274 -0.171125 -0.00277023 
30 2 -0.00902497 -0.197607 -0.106599 
31 2 0.0140581 -1.34517 -0.758405 
32 2 -0.166642 -0.119697 -0.164764 
33 2 -1.24895 0.908301 0.00255932 
34 2 -0.182456 0.129325 -0.0110703 
35 2 -0.0258221 0.222829 0.0921321 
36 2 -0.246055 -0.0263185 -0.0875518 
37 3 1.24667 0.976021 2.11157 
38 3 0.271635 -1.59694 1.56372 
39 3 -0.900703 1.70757 0.185885 
40 3 -0.994047 -0.525887 -0.101311 
41 3 1.86361 -0.00943034 0.371084 
42 3 -1.59367 -1.15408 1.04099 
43 3 -0.151155 0.655018 0.874056 
44 3 0.525735 -2.55605 -0.269342 
45 3 0.711027 -0.74198 0.334279 
46 3 -0.595438 0.0754709 2.15755 
47 3 -2.55362 0.384756 0.160823 
48 3 -0.585718 -1.16055 -1.36062 
49 3 1.59795 0.278512 -1.54348 
50 3 -0.537916 -1.47751 -2.05384 
51 3 -1.85383 0.297969 -0.133361 
52 3 0.160892 1.05021 0.198784 
53 3 0.613507 1.91062 -1.02139 
54 3 0.657591 -1.79398 -0.335512 
55 3 -0.661425 -0.0597276 -0.913508 
56 3 2.6009 0.383611 0.244074 
57 3 -0.225481 0.51108 -2.15538 
58 3 0.971621 -0.365521 -0.370166 
59 3 -1.24948 2.29972 -0.173949 
60 3 0.920116 0.991812 1.33302 
61 3 -1.24666 -0.97602 -2.11156 
62 3 -0.271636 1.59694 -1.56372 
63 3 0.900701 -1.70757 -0.185885 
64 3 0.994048 0.525892 0.101315 
65 3 -1.86361 0.0094309 -0.371087 
66 3 1.59367 1.15408 -1.04099 
67 3 0.151157 -0.655015 -0.87406 
68 3 -0.525736 2.55605 0.269343 
69 3 -0.711026 0.741979 -0.334275 
70 3 0.595435 -0.0754774 -2.15755 
71 3 2.55362 -0.384759 -0.160828 
72 3 0.585717 1.16055 1.36062 
73 3 -1.59795 -0.278509 1.54348 
74 3 0.537919 1.47751 2.05383 
75 3 1.85383 -0.297968 0.133361 
76 3 -0.160894 -1.05021 -0.19879 
77 3 -0.613507 -1.91062 1.0214 
78 3 -0.657593 1.79397 0.335515 
79 3 0.661423 0.0597291 0.913512 
80 3 -2.6009 -0.383607 -0.244074 
81 3 0.225484 -0.511077 2.15538 
82 3 -0.971617 0.365518 0.370164 
83 3 1.24949 -2.29971 0.173954 
84 3 -0.920118 -0.99181 -1.33303 
85 1 -0.760413 -0.268357 -0.465843 
86 1 0.990029 0.349749 0.60624 
87 1 0.0185939 0.796249 0.456655 
88 1 0.00291047 -1.04594 -0.61752 
89 1 -0.996156 0.694472 0.00898348 
90 1 0.754193 -0.522589 0.0172254 
91 1 0.760413 0.268356 0.465844 
92 1 -0.990025 -0.349748 -0.606244 
93 1 -0.0185933 -0.796249 -0.456655 
94 1 -0.00290681 1.04594 0.617525 
95 1 0.996159 -0.694471 -0.00898463 
96 1 -0.754192 0.52259 -0.0172263 
98 4 3.19809e-06 -5.39614e-06 -4.83052e-06 
99 4 -3.06641e-07 -3.31216e-06 1.97882e-06 
100 4 2.45844e-06 1.59526e-06 -4.88335e-06 
102 4 -7.53762e-08 -1.63613e-06 -3.37489e-06 
103 4 3.14842e-06 1.24612e-06 -3.77303e-06 
104 4 -4.04761e-06 -4.65714e-06 3.64465e-06 
ITEM: TIMESTEP
500
ITEM: NUMBER OF ATOMS
104
ITEM: BOX BOUNDS xy xz yz pp pp pp
-7.39379 11.0908 -3.69689
-5.22817 10.4565 -3.69689
0 9.05566 -5.22817
ITEM: ATOMS id type fx fy fz 
97 4 2.6604e-05 4.39568e-05 5.21259e-06 
101 4 3.03945e-05 3.74587e-05 3.10945e-05 
1 2 0.0799322 0.0283423 0.502743 
2 2 0.0606403 -0.439209 0.180325 
3 2 -0.449281 -0.159159 0.17819 
4 2 0.0389888 -0.446303 0.167315 
5 2 -0.498284 -0.10081 0.192466 
6 2 0.0560806 0.0959218 0.532588 
7 2 0.498295 0.100795 -0.192469 
8 2 -0.0560659 -0.0959478 -0.532576 
9 2 -0.0389781 0.446293 -0.167302 
10 2 0.449296 0.15915 -0.178207 
11 2 -0.0798982 -0.028347 -0.502755 
12 2 -0.06062 0.439205 -0.180325 
13 2 -0.112887 0.362074 -0.321472 
14 2 0.540489 0.19052 0.330361 
15 2 -0.129307 -0.44853 0.172794 
16 2 -1.06449 -0.376475 -0.651217 
17 2 -0.352104 0.0179556 0.272239 
18 2 0.0618465 -0.617007 -0.325619 
19 2 0.00861452 1.10143 0.592571 
20 2 0.390535 0.262817 -0.13121 
21 2 1.00546 -0.741914 0.0284612 
22 2 -0.53678 0.448901 0.0350747 
23 2 0.113102 -0.103472 -0.418077 
24 2 0.147302 -0.0724999 0.459546 
25 2 0.112872 -0.362092 0.321452 
26 2 -0.540497 -0.190499 -0.330376 
27 2 0.129306 0.448525 -0.172803 
28 2 1.06448 0.376483 0.651194 
29 2 0.352109 -0.0179342 -0.272217 
30 2 -0.0618712 0.617003 0.325637 
31 2 -0.00863486 -1.10142 -0.592547 
32 2 -0.390533 -0.26282 0.131219 
33 2 -1.00549 0.741933 -0.0284609 
34 2 0.53677 -0.448896 -0.0350738 
35 2 -0.11313 0.103487 0.418074 
36 2 -0.147323 0.0725212 -0.459537 
37 3 -2.12375 1.69295 -0.33166 
38 3 1.60314 -2.30972 1.7245 
39 3 0.544243 0.399238 2.54471 
40 3 -1.06061 0.634362 -2.78692 
41 3 0.103407 -2.57788 0.800887 
42 3 -2.7996 -1.91994 0.219343 
43 3 0.966537 2.92248 -0.766186 
44 3 2.33204 1.06475 1.05622 
45 3 2.36528 -0.1797 -1.92999 
46 3 -0.796326 1.43315 2.8982 
47 3 0.23602 -2.29016 -1.72607 
48 3 -2.43476 -0.304672 0.973061 
49 3 2.77539 -0.732895 -1.68593 
50 3 -2.40936 1.52132 0.393999 
51 3 -0.162647 -0.613339 -2.56235 
52 3 -0.871417 0.707598 2.84372 
53 3 0.854757 3.17956 -0.219699 
54 3 2.44676 0.659004 -0.712573 
55 3 -2.3302 -1.83457 0.709734 
56 3 -0.180058 -2.507 -1.07975 
57 3 -1.65848 0.342318 -2.95007 
58 3 1.07292 -2.20124 2.01558 
59 3 2.14224 0.516455 1.68522 
60 3 -0.526507 2.42829 -1.06121 
61 3 2.1238 -1.69294 0.331667 
62 3 -1.60316 2.30973 -1.72451 
63 3 -0.544241 -0.399243 -2.54469 
64 3 1.06062 -0.634324 2.78692 
65 3 -0.1034 2.5779 -0.800913 
66 3 2.79959 1.91991 -0.219367 
67 3 -0.966536 -2.92245 0.766197 
68 3 -2.33205 -1.06476 -1.05623 
69 3 -2.3653 0.179707 1.93003 
70 3 0.79634 -1.43316 -2.89819 
71 3 -0.235994 2.29011 1.72608 
72 3 2.43476 0.304654 -0.973051 
73 3 -2.77541 0.732907 1.68594 
74 3 2.40936 -1.52136 -0.394002 
75 3 0.162655 0.613337 2.56233 
76 3 0.871388 -0.707625 -2.8437 
77 3 -0.854735 -3.17954 0.219725 
78 3 -2.44677 -0.659014 0.7126 
79 3 2.33016 1.83456 -0.70974 
80 3 0.180062 2.50702 1.07976 
81 3 1.6585 -0.34233 2.95006 
82 3 -1.07293 2.20124 -2.01561 
83 3 -2.14218 -0.51647 -1.68522 
84 3 0.526513 -2.42828 1.06119 
85 1 -0.102649 -0.0357476 -0.0628742 
86 1 0.703797 0.24749 0.430272 
87 1 -0.0177313 0.048495 0.0353409 
88 1 0.0746527 -0.774235 -0.419282 
89 1 -0.682634 0.558333 0.0465557 
90 1 0.0448627 -0.0376564 -0.0176481 
91 1 0.102657 0.035738 0.0628665 
92 1 -0.70378 -0.247499 -0.430285 
93 1 0.0177352 -0.0484979 -0.035331 
94 1 -0.0746413 0.774228 0.41929 
95 1 0.682644 -0.558334 -0.0465569 
96 1 -0.0448641 0.0376609 0.0176474 
98 4 -2.09522e-05 -4.05657e-05 -3.32496e-05 
99 4 3.5378e-06 -8.34183e-06 -4.18536e-06 
100 4 -3.79556e-05 4.30502e-05 2.86838e-05 
102 4 -2.76618e-05 -4.69514e-05 -2.34158e-05 
103 4 -6.49223e-08 9.63022e-06 4.90649e-07 
104 4 -4.48327e-05 2.77207e-05 -2.63754e-05 
ITEM: TIMESTEP
600
ITEM: NUMBER OF ATOMS
104
ITEM: BOX BOUNDS xy xz yz pp pp pp
-7.39379 11.0908 -3.69689
-5.22817 10.4565 -3.69689
0 9.05566 -5.22817
ITEM: ATOMS id type fx fy fz 
97 4 3.62519e-05 0.000221495 -0.000211581 
101 4 -2.43947e-05 0.000169199 9.61392e-05 
1 2 -0.0598815 0.113063 -0.139157 
2 2 -0.0325508 0.11851 -0.141059 
3 2 0.0807501 0.162585 -0.0536637 
4 2 0.0706858 0.154772 -0.0785293 
5 2 0.0999362 -0.0452892 -0.1319 
6 2 0.0965198 -0.0461996 -0.134077 
7 2 -0.0998629 0.0453114 0.132005 
8 2 -0.0964217 0.0462446 0.134103 
9 2 -0.0704991 -0.154855 0.0784588 
10 2 -0.0806096 -0.16276 0.0537349 
11 2 0.0598648 -0.113175 0.139112 
12 2 0.0325426 -0.11855 0.140969 
13 2 -0.181324 0.256859 -0.391364 
14 2 0.513222 0.181475 0.314434 
15 2 -0.25846 -0.41308 0.122062 
16 2 -0.102546 -0.0361105 -0.0624198 
17 2 -0.291664 0.0940549 0.310174 
18 2 0.0205832 -0.581401 -0.392404 
19 2 -0.00323678 0.116599 0.0407172 
20 2 0.287901 0.323939 -0.117759 
21 2 0.0866256 -0.0861166 0.0106485 
22 2 -0.588145 0.381453 0.0452346 
23 2 0.198869 -0.125909 -0.366267 
24 2 0.152352 -0.167816 0.386997 
25 2 0.181156 -0.2569 0.391159 
26 2 -0.513229 -0.181315 -0.314615 
27 2 0.258594 0.413132 -0.122049 
28 2 0.102495 0.0359616 0.0624319 
29 2 0.291621 -0.093866 -0.309944 
30 2 -0.0207372 0.581339 0.39256 
31 2 0.00333044 -0.116517 -0.0407021 
32 2 -0.287929 -0.324094 0.117749 
33 2 -0.0867613 0.0862118 -0.0106259 
34 2 0.588094 -0.381391 -0.0452469 
35 2 -0.198953 0.125958 0.366298 
36 2 -0.152437 0.167914 -0.38703 
37 3 -0.734139 -0.722455 -0.86963 
38 3 0.153276 -0.386708 0.765038 
39 3 0.905191 -0.81686 -0.297186 
40 3 -0.324633 0.901923 -0.874411 
41 3 -1.00265 -0.032455 -0.568677 
42 3 -0.477314 -0.839535 0.45643 
43 3 0.899798 0.609628 -0.390786 
44 3 -0.481329 1.12827 0.38496 
45 3 0.337691 -0.167895 -1.20671 
46 3 -0.576218 -0.04334 0.602223 
47 3 1.26373 -0.18693 0.322634 
48 3 0.257306 1.04637 0.534447 
49 3 0.278167 -0.06259 -0.7839 
50 3 0.59639 0.844798 0.816505 
51 3 1.01475 -0.597812 0.243456 
52 3 -0.95278 -0.0487254 0.832578 
53 3 0.493849 0.617551 -0.369194 
54 3 -0.328144 1.02166 0.651144 
55 3 -0.396472 -1.15744 0.431519 
56 3 -1.29565 0.00394518 -0.374924 
57 3 -0.180526 0.606442 -0.860103 
58 3 0.26627 -0.195894 1.10408 
59 3 0.683993 -1.05643 -0.259678 
60 3 -0.813514 -0.609674 -0.543534 
61 3 0.734021 0.722579 0.869726 
62 3 -0.153361 0.386724 -0.765015 
63 3 -0.905234 0.816757 0.297228 
64 3 0.32484 -0.901919 0.874403 
65 3 1.00276 0.0324148 0.568464 
66 3 0.477319 0.839505 -0.456612 
67 3 -0.899731 -0.609563 0.390837 
68 3 0.48139 -1.12824 -0.385117 
69 3 -0.337661 0.167802 1.20673 
70 3 0.576269 0.0433085 -0.602117 
71 3 -1.26371 0.18698 -0.322494 
72 3 -0.25733 -1.04644 -0.534378 
73 3 -0.278184 0.0626937 0.783864 
74 3 -0.596481 -0.844702 -0.816585 
75 3 -1.01467 0.597962 -0.243443 
76 3 0.952871 0.0485228 -0.832567 
77 3 -0.493814 -0.617586 0.369396 
78 3 0.328182 -1.02172 -0.650947 
79 3 0.396439 1.15737 -0.431567 
80 3 1.29561 -0.00398271 0.375064 
81 3 0.18057 -0.606487 0.860017 
82 3 -0.266132 0.195922 -1.1041 
83 3 -0.684038 1.05634 0.259494 
84 3 0.813615 0.609672 0.543475 
85 1 0.479743 0.169341 0.293228 
86 1 -0.032834 -0.0129032 -0.0206407 
87 1 -0.0235354 -0.584692 -0.268284 
88 1 0.0318963 0.0709193 0.0899165 
89 1 0.117096 -0.0183926 0.000854456 
90 1 -0.503854 0.398918 -0.053778 
91 1 -0.479673 -0.169399 -0.293303 
92 1 0.0329438 0.0127408 0.020493 
93 1 0.0236157 0.584641 0.26838 
94 1 -0.0317284 -0.0709447 -0.0898041 
95 1 -0.117094 0.0184435 -0.000853772 
96 1 0.503865 -0.398895 0.0537832 
98 4 -0.000199877 -4.78355e-05 -0.000112384 
99 4 -0.000130114 0.000221261 0.000102954 
100 4 -4.23081e-05 6.41713e-05 0.00037185 
102 4 -0.000208511 -0.000196861 0.000195774 
103 4 -0.000236376 2.11608e-05 -0.000119971 
104 4 -0.00010395 -1.58895e-05 -0.000389688 
ITEM: TIMESTEP
700
ITEM: NUMBER OF ATOMS
104
ITEM: BOX BOUNDS xy xz yz pp pp pp
-7.39379 11.0908 -3.69689
-5.22817 10.4565 -3.69689
0 9.05566 -5.22817
ITEM: ATOMS id type fx fy fz 
97 4 -0.000213481 8.89757e-05 -0.000513383 
101 4 0.000171153 -0.000432871 -0.000250692 
1 2 -0.614559 -0.191027 -0.0867175 
2 2 -0.592605 0.050025 -0.0257176 
3 2 0.365126 0.158489 0.513057 
4 2 0.195273 0.329374 0.456666 
5 2 0.285709 -0.47068 0.0982716 
6 2 0.0434696 -0.554676 -0.0490841 
7 2 -0.286212 0.470625 -0.0995564 
8 2 -0.0430423 0.555439 0.0480612 
9 2 -0.195964 -0.328874 -0.457259 
10 2 -0.365834 -0.157769 -0.512464 
11 2 0.613794 0.190232 0.0876599 
12 2 0.592328 -0.0496514 0.0270851 
13 2 -0.278909 -0.0203304 0.243106 
14 2 -0.303487 -0.108003 -0.185536 
15 2 0.0947019 -0.0453823 -0.356707 
16 2 0.337094 0.119386 0.206424 
17 2 -0.0170197 0.104964 -0.324531 
18 2 0.00786456 0.261605 0.109058 
19 2 -0.0408868 -0.258181 -0.174524 
20 2 0.0509413 -0.105051 0.35827 
21 2 -0.277321 0.144862 -0.0199637 
22 2 0.214253 -0.182631 0.0260532 
23 2 -0.221735 -0.188896 0.1789 
24 2 0.257775 0.215477 -0.167947 
25 2 0.2793 0.0208851 -0.243631 
26 2 0.303837 0.106742 0.185235 
27 2 -0.095113 0.0456562 0.355983 
28 2 -0.3369 -0.119377 -0.207419 
29 2 0.0165673 -0.105387 0.32507 
30 2 -0.00635278 -0.261537 -0.108873 
31 2 0.0408693 0.257899 0.175626 
32 2 -0.0513742 0.105255 -0.357676 
33 2 0.276837 -0.144476 0.0198966 
34 2 -0.214505 0.182872 -0.025962 
35 2 0.221284 0.189006 -0.178831 
36 2 -0.257911 -0.215143 0.167753 
37 3 2.36236 -1.69369 0.398902 
38 3 -1.17296 0.926517 -0.322096 
39 3 -0.192128 0.0111526 -3.68881 
40 3 0.153438 0.18723 3.3592 
41 3 0.162021 3.35387 -1.67669 
42 3 1.0807 0.565889 0.500348 
43 3 0.0427102 -3.18224 1.55982 
44 3 -2.56552 -1.26106 -1.22843 
45 3 -2.85105 -0.909196 1.55763 
46 3 0.262483 -1.09445 -0.911123 
47 3 -0.293035 2.60528 1.76869 
48 3 2.99634 0.954414 -1.9067 
49 3 -1.17317 0.772506 0.354285 
50 3 2.57344 -1.79906 -0.371318 
51 3 -0.106768 0.0647432 3.67247 
52 3 -0.108524 -0.136613 -3.36746 
53 3 -0.217962 -1.41944 -0.528881 
54 3 -3.07211 -1.16495 1.69032 
55 3 2.88437 0.887365 -1.50091 
56 3 0.314573 2.63958 1.23827 
57 3 1.03587 0.182793 0.794455 
58 3 -0.211409 3.12091 -1.66249 
59 3 -2.45487 -0.514517 -1.84588 
60 3 0.266858 -3.20208 1.93983 
61 3 -2.36251 1.69415 -0.39852 
62 3 1.17294 -0.926261 0.32349 
63 3 0.191585 -0.0109892 3.68908 
64 3 -0.153601 -0.186535 -3.35876 
65 3 -0.161458 -3.35415 1.67561 
66 3 -1.08095 -0.565231 -0.501169 
67 3 -0.0427468 3.18194 -1.55965 
68 3 2.56554 1.26139 1.22879 
69 3 2.85196 0.909336 -1.55752 
70 3 -0.262018 1.09396 0.911049 
71 3 0.293101 -2.60459 -1.76876 
72 3 -2.99568 -0.954555 1.90759 
73 3 1.1729 -0.772598 -0.35567 
74 3 -2.57371 1.79901 0.370951 
75 3 0.106374 -0.0641966 -3.67275 
76 3 0.108009 0.13646 3.36716 
77 3 0.217235 1.41957 0.529746 
78 3 3.07261 1.16467 -1.68922 
79 3 -2.884 -0.887184 1.50083 
80 3 -0.314931 -2.63962 -1.23871 
81 3 -1.03548 -0.183337 -0.794266 
82 3 0.211416 -3.12195 1.66233 
83 3 2.45441 0.514138 1.84567 
84 3 -0.26656 3.20156 -1.94066 
85 1 0.0868285 0.0307676 0.0532492 
86 1 -1.1982 -0.424614 -0.733462 
87 1 0.0202867 0.0233053 0.0512729 
88 1 0.0478073 1.25078 0.69107 
89 1 1.17021 -0.820099 0.0533222 
90 1 0.0601478 0.00460433 -0.0019138 
91 1 -0.0865017 -0.0308985 -0.0532505 