LAMMPS (14 Mar 2014)
### LAMMPS Input Feb 25 2014 Sneha Akhade ###

## LiLaZrO garnet - Bush+Woodley rigid ion potential

# Initiation
units           metal
atom_style      charge
boundary        p p p
read_data	LLZ.data
  triclinic box = (0 0 0) to (11.2401 10.4629 9.28714) with tilt (-4.10702 -3.56652 -5.23143)
  1 by 1 by 1 MPI processor grid
  reading atoms ...
  96 atoms

# Atom definition
group		La type 1
12 atoms in group La
group		Zr type 2
8 atoms in group Zr
group		O  type 3
48 atoms in group O
group		Li type 4
28 atoms in group Li
set		group La charge 3.00
  12 settings made for charge
mass		1 138.91
set 		group Zr charge 4.00
  8 settings made for charge
mass		2 91.224
set		group O charge -2.00
  48 settings made for charge
mass		3 15.999
set		group Li charge 1.00
  28 settings made for charge
mass		4 6.941

# Interatomic potential
kspace_style	ewald  1.0e-5
pair_style      buck/coul/long 8.0

pair_coeff      * *     0.00  0.100000  0.000000
pair_coeff      1 3 5436.827  0.293900  0.000000
pair_coeff	2 3 7290.347  0.261000  0.000000
pair_coeff	3 3   25.410  0.693700 32.320000
pair_coeff	3 4  426.480  0.300000  0.000000

# Simulation parameters (set Tdamp~30-50 for T < 500 K)
fix             1 all nvt temp 300 300 30
compute         msd all msd
compute         msdLi 4 msd
ERROR: Could not find compute group ID (../compute.cpp:53)
