ITEM: TIMESTEP
0
ITEM: NUMBER OF ATOMS
104
ITEM: BOX BOUNDS xy xz yz pp pp pp
-7.39379 11.0908 -3.69689
-5.22817 10.4565 -3.69689
0 9.05566 -5.22817
ITEM: ATOMS id type x y z 
97 4 0 0 0 
101 4 5.5454 0 0 
1 2 8.31812 1.96061 1.13196 
2 2 2.77275 5.88182 3.39587 
3 2 -2.77265 7.84241 2.26392 
4 2 -0.924178 2.61419 6.79175 
5 2 -0.924193 -3.26759 7.9237 
6 2 4.62121 0.653586 5.65979 
7 2 4.62121 8.49593 1.13196 
8 2 -0.924193 4.57476 3.39587 
9 2 4.62119 2.61415 2.26392 
10 2 6.46967 -2.61407 6.79175 
11 2 -4.6211 3.26774 7.9237 
12 2 0.924269 -0.653479 5.65979 
13 2 -2.77264 3.01782 7.31335 
14 2 0.0725056 1.00598 6.27014 
15 2 0.924253 -1.71065 4.00622 
16 2 -1.92089 8.14354 0.521606 
17 2 5.47298 -1.00586 6.27014 
18 2 -2.77266 -3.01768 7.31335 
19 2 4.6212 1.71072 4.00622 
20 2 3.76941 2.31299 0.521606 
21 2 3.76944 7.13764 2.26392 
22 2 -1.9209 3.31892 2.26392 
23 2 8.31811 9.84e-06 1.04321 
24 2 0.924277 5.22829 3.48462 
25 2 6.46965 2.21052 1.74231 
26 2 3.62451 4.22237 2.78552 
27 2 2.77276 6.93899 5.04944 
28 2 5.61791 -2.9152 8.53406 
29 2 -1.77596 6.2342 2.78552 
30 2 6.46968 8.24603 1.74231 
31 2 -0.924186 3.51762 5.04944 
32 2 -0.0723917 2.91536 8.53406 
33 2 -0.0724219 -1.9093 6.79175 
34 2 5.61791 1.90942 6.79175 
35 2 -4.62109 5.22834 8.01245 
36 2 2.77274 5.2548e-05 5.57104 
37 3 0.184364 2.99002 3.48906 
38 3 2.75758 9.01285 1.03877 
39 3 -0.622755 5.16245 1.57578 
40 3 8.77173 -1.48046 2.95206 
41 3 1.37788 0.682695 4.33395 
42 3 0.184366 9.36899 0.193882 
43 3 -4.31966 1.39764 8.32478 
44 3 -0.93936 -0.99264 5.25871 
45 3 2.75757 2.4364 2.75817 
46 3 5.0748 0.797849 1.76966 
47 3 -4.31967 -1.33167 8.21077 
48 3 7.57822 -1.90241 5.37272 
49 3 1.66419 7.46656 3.48906 
50 3 -0.909063 1.44369 1.03877 
51 3 7.86451 1.48051 2.95206 
52 3 2.47128 5.2941 1.57578 
53 3 4.16758 -0.682613 4.33395 
54 3 1.66414 1.08753 0.193882 
55 3 6.48483 0.992739 5.25871 
56 3 -1.22563 -1.39749 8.32478 
57 3 -0.909027 8.02018 2.75817 
58 3 0.470628 -0.797816 1.76966 
59 3 -2.03275 1.90251 5.37272 
60 3 -1.22562 1.33182 8.21077 
61 3 3.51265 2.23832 5.56661 
62 3 0.93943 -3.78451 8.01689 
63 3 4.31977 0.0658944 7.47989 
64 3 -5.07471 6.7088 6.10361 
65 3 2.31914 4.54565 4.72171 
66 3 3.51265 -4.14065 8.86178 
67 3 8.01667 3.8307 0.730882 
68 3 4.63637 6.22099 3.79695 
69 3 0.939444 2.79195 6.29749 
70 3 -1.37778 4.4305 7.286 
71 3 8.01668 6.56001 0.844893 
72 3 -3.88121 7.13075 3.68294 
73 3 2.03282 -2.23822 5.56661 
74 3 4.60608 3.78466 8.01689 
75 3 -4.1675 3.74783 6.10361 
76 3 1.22573 -0.0657532 7.47989 
77 3 -0.470565 5.91096 4.72171 
78 3 2.03287 4.14081 8.86178 
79 3 -2.78782 4.23561 3.79695 
80 3 4.92265 6.62583 0.730882 
81 3 4.60604 -2.79183 6.29749 
82 3 3.22639 6.02616 7.286 
83 3 5.72977 3.32584 3.68294 
84 3 4.92264 3.89653 0.844893 
85 1 0.924253 3.26767 1.13196 
86 1 6.46965 -0.653501 3.39587 
87 1 -0.924208 0.653565 3.39587 
88 1 0.924269 7.18887 1.13196 
89 1 2.77272 2.1354e-05 2.26392 
90 1 -2.77265 6.4062e-05 6.79175 
91 1 2.77276 1.96067 7.9237 
92 1 -2.77264 5.88185 5.65979 
93 1 4.62122 4.57478 5.65979 
94 1 2.77275 -1.96052 7.9237 
95 1 0.924299 5.22832 6.79175 
96 1 6.46967 5.22828 2.26392 
98 4 6.0399e-05 7.84243 4.52783 
99 4 3.69695 5.22826 0 
100 4 -3.69689 2.61417 4.52783 
102 4 1.84851 2.61417 4.52783 
103 4 5.54546 7.84243 4.52783 
104 4 9.24235 5.22826 0 
ITEM: TIMESTEP
100
ITEM: NUMBER OF ATOMS
104
ITEM: BOX BOUNDS xy xz yz pp pp pp
-7.39379 11.0908 -3.69689
-5.22817 10.4565 -3.69689
0 9.05566 -5.22817
ITEM: ATOMS id type x y z 
97 4 8.13399e-09 -3.66412e-09 -1.12772e-09 
101 4 5.5454 1.94732e-09 2.77175e-09 
1 2 8.29131 1.97358 1.09554 
2 2 2.74819 5.90745 3.36743 
3 2 -2.74007 7.87639 2.26384 
4 2 -0.904851 2.65538 6.79019 
5 2 -0.894864 -3.28583 7.89803 
6 2 4.64097 0.631957 5.62827 
7 2 4.59188 8.51417 1.15763 
8 2 -0.94396 4.59639 3.42739 
9 2 4.60186 2.57297 2.26547 
10 2 6.43709 -2.64804 6.79182 
11 2 -4.5943 3.25476 7.96012 
12 2 0.948828 -0.679103 5.68824 
13 2 -2.68896 2.98578 7.23442 
14 2 0.0736557 1.0064 6.27087 
15 2 0.872599 -1.6673 4.10479 
16 2 -1.876 8.15941 0.549077 
17 2 5.52967 -1.0776 6.3507 
18 2 -2.77351 -3.02439 7.30789 
19 2 4.62234 1.65153 3.97752 
20 2 3.71559 2.34876 0.421904 
21 2 3.71842 7.17924 2.26211 
22 2 -1.92878 3.32255 2.26402 
23 2 8.36894 0.109766 1.02847 
24 2 0.841813 5.14436 3.50088 
25 2 6.38597 2.24257 1.82124 
26 2 3.62336 4.22194 2.7848 
27 2 2.82441 6.89565 4.95088 
28 2 5.57301 -2.93106 8.50659 
29 2 -1.83266 6.30595 2.70497 
30 2 6.47052 8.25273 1.74777 
31 2 -0.925324 3.57682 5.07814 
32 2 -0.0185801 2.87958 8.63376 
33 2 -0.0214032 -1.95089 6.79355 
34 2 5.62579 1.90579 6.79164 
35 2 -4.67192 5.11858 8.02719 
36 2 2.8552 0.0839905 5.55479 
37 3 0.0883162 3.04442 3.44644 
38 3 2.83102 9.02053 1.02384 
39 3 -0.617437 5.12667 1.65275 
40 3 8.79511 -1.42575 2.87846 
41 3 1.33823 0.619491 4.37952 
42 3 0.169274 9.34396 0.123862 
43 3 -4.27828 1.44016 8.25058 
44 3 -0.859514 -0.917952 5.30284 
45 3 2.78438 2.47135 2.67464 
46 3 5.05882 0.867689 1.75665 
47 3 -4.27734 -1.4208 8.14514 
48 3 7.53237 -1.91657 5.44644 
49 3 1.68117 7.39707 3.50267 
50 3 -0.990559 1.51898 1.08041 
51 3 7.90273 1.49198 2.87367 
52 3 2.42849 5.2535 1.64952 
53 3 4.18348 -0.658699 4.40358 
54 3 1.7119 1.14208 0.14943 
55 3 6.45831 0.936943 5.3304 
56 3 -1.26679 -1.50039 8.28338 
57 3 -0.98303 8.01371 2.77365 
58 3 0.443877 -0.83515 1.85283 
59 3 -1.93488 1.89063 5.43741 
60 3 -1.23141 1.37896 8.13735 
61 3 3.6087 2.18393 5.60922 
62 3 0.865993 -3.79218 8.03183 
63 3 4.31445 0.101673 7.40292 
64 3 -5.0981 6.6541 6.17721 
65 3 2.35878 4.60886 4.67614 
66 3 3.52774 -4.11561 8.9318 
67 3 7.97529 3.78818 0.805087 
68 3 4.55653 6.1463 3.75282 
69 3 0.912633 2.757 6.38102 
70 3 -1.36181 4.36066 7.29901 
71 3 7.97435 6.64915 0.910518 
72 3 -3.83536 7.14492 3.60922 
73 3 2.01584 -2.16872 5.55299 
74 3 4.68757 3.70936 7.97525 
75 3 -4.20572 3.73636 6.18199 
76 3 1.26853 -0.0251554 7.40614 
77 3 -0.486463 5.88704 4.65208 
78 3 1.98511 4.08627 8.90623 
79 3 -2.76129 4.2914 3.72527 
80 3 4.9638 6.72874 0.772287 
81 3 4.68004 -2.78536 6.28202 
82 3 3.25314 6.0635 7.20283 
83 3 5.6319 3.33772 3.61825 
84 3 4.92842 3.84939 0.918309 
85 1 0.890139 3.25561 1.11107 
86 1 6.4875 -0.647174 3.40679 
87 1 -0.925232 0.694912 3.41837 
88 1 0.923585 7.16882 1.11982 
89 1 2.75312 0.0129112 2.26365 
90 1 -2.73512 -0.0283897 6.79159 
91 1 2.80687 1.97274 7.94459 
92 1 -2.79049 5.87552 5.64887 
93 1 4.62225 4.53343 5.63729 
94 1 2.77343 -1.94047 7.93584 
95 1 0.943894 5.21543 6.79201 
96 1 6.43214 5.25674 2.26407 
98 4 6.04006e-05 7.84243 4.52783 
99 4 3.69695 5.22826 -1.17586e-09 
100 4 -3.69689 2.61417 4.52783 
102 4 1.84851 2.61417 4.52783 
103 4 5.54546 7.84243 4.52783 
104 4 9.24235 5.22826 -6.49667e-09 
ITEM: TIMESTEP
200
ITEM: NUMBER OF ATOMS
104
ITEM: BOX BOUNDS xy xz yz pp pp pp
-7.39379 11.0908 -3.69689
-5.22817 10.4565 -3.69689
0 9.05566 -5.22817
ITEM: ATOMS id type x y z 
97 4 -3.36902e-09 3.12344e-09 1.0128e-08 
101 4 5.5454 -2.46431e-08 9.04186e-09 
1 2 8.33023 1.95648 1.1114 
2 2 2.78861 5.90668 3.389 
3 2 -2.75795 7.83915 2.24498 
4 2 -0.935652 2.6294 6.76822 
5 2 -0.908275 -3.24977 7.91944 
6 2 4.61096 0.662158 5.63952 
7 2 4.60529 8.47812 1.13623 
8 2 -0.913947 4.56619 3.41614 
9 2 4.63267 2.59894 2.28744 
10 2 6.45496 -2.6108 6.81069 
11 2 -4.63321 3.27187 7.94426 
12 2 0.908401 -0.678332 5.66666 
13 2 -2.78544 2.93089 7.27435 
14 2 0.112621 1.02022 6.29473 
15 2 0.847117 -1.65547 3.99025 
16 2 -1.87847 8.15856 0.547611 
17 2 5.54736 -0.970516 6.3117 
18 2 -2.77284 -3.06229 7.28613 
19 2 4.6207 1.65145 3.97521 
20 2 3.70177 2.37157 0.531886 
21 2 3.71592 7.17794 2.26191 
22 2 -1.96419 3.34818 2.26454 
23 2 8.3935 0.0176551 1.09328 
24 2 0.937761 5.1506 3.44125 
25 2 6.48246 2.29745 1.78131 
26 2 3.58439 4.20813 2.76093 
27 2 2.8499 6.88382 5.06541 
28 2 5.57548 -2.93021 8.50805 
29 2 -1.85034 6.19886 2.74397 
30 2 6.46985 8.29064 1.76953 
31 2 -0.923688 3.5769 5.08045 
32 2 -0.00476038 2.85678 8.52378 
33 2 -0.0189023 -1.94959 6.79375 
34 2 5.6612 1.88016 6.79112 
35 2 -4.69649 5.21069 7.96238 
36 2 2.75925 0.0777452 5.61441 
37 3 0.112025 3.09961 3.49915 
38 3 2.89633 8.96085 1.06502 
39 3 -0.64415 5.14827 1.70866 
40 3 8.77754 -1.46955 2.83919 
41 3 1.3695 0.577107 4.42149 
42 3 0.0897207 9.28874 0.109139 
43 3 -4.31435 1.49033 8.2595 
44 3 -0.812991 -0.985325 5.29094 
45 3 2.8427 2.47309 2.69494 
46 3 5.032 0.930349 1.8268 
47 3 -4.35444 -1.42218 8.12142 
48 3 7.48251 -1.95873 5.45261 
49 3 1.75906 7.35244 3.46376 
50 3 -1.03628 1.47692 1.02893 
51 3 7.87126 1.50541 2.81771 
52 3 2.46531 5.28539 1.68748 
53 3 4.21074 -0.566303 4.41907 
54 3 1.75884 1.12762 0.10591 
55 3 6.39973 0.95382 5.32304 
56 3 -1.18981 -1.51999 8.29231 
57 3 -1.0476 8.01795 2.70013 
58 3 0.46278 -0.891385 1.83339 
59 3 -1.96084 1.96525 5.46189 
60 3 -1.20671 1.44113 8.12964 
61 3 3.58499 2.12874 5.55652 
62 3 0.800682 -3.7325 7.99064 
63 3 4.34116 0.0800743 7.34701 
64 3 -5.08053 6.69789 6.21647 
65 3 2.32751 4.65124 4.63417 
66 3 3.60729 -4.0604 8.94652 
67 3 8.01136 3.73802 0.796161 
68 3 4.51 6.21367 3.76472 
69 3 0.854317 2.75525 6.36073 
70 3 -1.33499 4.298 7.22886 
71 3 8.05145 6.65053 0.934238 
72 3 -3.7855 7.18707 3.60305 
73 3 1.93795 -2.12409 5.5919 
74 3 4.73329 3.75142 8.02673 
75 3 -4.17425 3.72294 6.23795 
76 3 1.23171 -0.0570427 7.36818 
77 3 -0.513722 5.79465 4.6366 
78 3 1.93817 4.10073 8.94975 
79 3 -2.70271 4.27453 3.73262 
80 3 4.88683 6.74834 0.763354 
81 3 4.74461 -2.7896 6.35553 
82 3 3.23423 6.11973 7.22227 
83 3 5.65786 3.26309 3.59377 
84 3 4.90373 3.78722 0.926021 
85 1 0.904986 3.26086 1.12017 
86 1 6.47912 -0.650126 3.40166 
87 1 -0.924399 0.675082 3.40748 
88 1 0.921541 7.17754 1.12658 
89 1 2.76207 0.00663094 2.26114 
90 1 -2.75308 -0.0146169 6.79199 
91 1 2.79203 1.96749 7.9355 
92 1 -2.7821 5.87847 5.65401 
93 1 4.62141 4.55326 5.64818 
94 1 2.77547 -1.94919 7.92908 
95 1 0.934939 5.22171 6.79452 
96 1 6.4501 5.24296 2.26367 
98 4 6.03914e-05 7.84243 4.52783 
99 4 3.69695 5.22826 -1.50277e-08 
100 4 -3.69689 2.61417 4.52783 
102 4 1.84851 2.61417 4.52783 
103 4 5.54546 7.84243 4.52783 
104 4 9.24235 5.22826 -1.3948e-08 
ITEM: TIMESTEP
300
ITEM: NUMBER OF ATOMS
104
ITEM: BOX BOUNDS xy xz yz pp pp pp
-7.39379 11.0908 -3.69689
-5.22817 10.4565 -3.69689
0 9.05566 -5.22817
ITEM: ATOMS id type x y z 
97 4 2.16663e-08 -8.05477e-08 9.01223e-08 
101 4 5.5454 -1.04631e-07 -4.24544e-08 
1 2 8.31967 2.01729 1.16843 
2 2 2.77145 5.82047 3.36599 
3 2 -2.82963 7.87832 2.26471 
4 2 -0.870602 2.57235 6.79563 
5 2 -0.988069 -3.28826 7.8909 
6 2 4.67895 0.676017 5.70146 
7 2 4.68508 8.51661 1.16476 
8 2 -0.981934 4.55233 3.35421 
9 2 4.56762 2.656 2.26003 
10 2 6.52664 -2.64998 6.79095 
11 2 -4.62265 3.21106 7.88723 
12 2 0.925561 -0.592121 5.68968 
13 2 -2.76771 3.00349 7.29621 
14 2 0.18306 1.04517 6.33796 
15 2 0.905098 -1.70119 4.01476 
16 2 -1.97634 8.12394 0.487731 
17 2 5.47769 -1.0122 6.29396 
18 2 -2.77453 -3.1348 7.24116 
19 2 4.62157 1.74642 4.02748 
20 2 3.76071 2.33225 0.510616 
21 2 3.80361 7.11436 2.26387 
22 2 -2.03555 3.39484 2.26471 
23 2 8.33618 0.0144546 1.03325 
24 2 0.921524 5.20498 3.48876 
25 2 6.46472 2.22485 1.75945 
26 2 3.51395 4.18318 2.7177 
27 2 2.79192 6.92953 5.0409 
28 2 5.67336 -2.8956 8.56793 
29 2 -1.78068 6.24054 2.7617 
30 2 6.47154 8.36315 1.81451 
31 2 -0.924553 3.48193 5.02818 
32 2 -0.0637004 2.8961 8.54505 
33 2 -0.106593 -1.88602 6.79179 
34 2 5.73256 1.83351 6.79095 
35 2 -4.63917 5.21389 8.02242 
36 2 2.77549 0.0233665 5.56691 
37 3 0.134829 3.10272 3.54186 
38 3 2.894 8.92888 1.05175 
39 3 -0.663991 5.17614 1.67186 
40 3 8.76517 -1.47938 2.90067 
41 3 1.40471 0.612633 4.41379 
42 3 0.0613644 9.30508 0.114182 
43 3 -4.31544 1.44511 8.30838 
44 3 -0.816467 -1.03282 5.29601 
45 3 2.79929 2.44179 2.73367 
46 3 5.05828 0.93481 1.85088 
47 3 -4.39903 -1.41631 8.14264 
48 3 7.50626 -1.97343 5.41259 
49 3 1.7896 7.36802 3.47451 
50 3 -1.03106 1.45711 0.983608 
51 3 7.83957 1.51728 2.85292 
52 3 2.46774 5.30213 1.62365 
53 3 4.18407 -0.544626 4.41459 
54 3 1.73532 1.08441 0.116148 
55 3 6.44115 0.973891 5.27934 
56 3 -1.1459 -1.4995 8.29046 
57 3 -1.04517 7.99243 2.67911 
58 3 0.481041 -0.840089 1.79499 
59 3 -1.98023 2.00468 5.44279 
60 3 -1.18451 1.42594 8.17246 
61 3 3.56218 2.12563 5.5138 
62 3 0.803012 -3.70054 8.00392 
63 3 4.361 0.0522056 7.3838 
64 3 -5.06815 6.70772 6.15499 
65 3 2.2923 4.61571 4.64187 
66 3 3.63565 -4.07674 8.94148 
67 3 8.01245 3.78323 0.74728 
68 3 4.51348 6.26117 3.75965 
69 3 0.897725 2.78655 6.32199 
70 3 -1.36127 4.29354 7.20478 
71 3 8.09604 6.64466 0.913018 
72 3 -3.80924 7.20178 3.64308 
73 3 1.90741 -2.13967 5.58115 
74 3 4.72807 3.77124 8.07205 
75 3 -4.14256 3.71106 6.20274 
76 3 1.22927 -0.0737831 7.43201 
77 3 -0.487059 5.77297 4.64107 
78 3 1.9617 4.14394 8.93951 
79 3 -2.74414 4.25445 3.77633 
80 3 4.84291 6.72785 0.7652 
81 3 4.74219 -2.76409 6.37655 
82 3 3.21597 6.06844 7.26068 
83 3 5.67725 3.22367 3.61287 
84 3 4.88152 3.8024 0.883205 
85 1 0.895338 3.25745 1.11427 
86 1 6.48717 -0.647279 3.4066 
87 1 -0.923841 0.689414 3.41502 
88 1 0.923624 7.16878 1.12003 
89 1 2.75329 0.0130253 2.26358 
90 1 -2.73997 -0.0241176 6.79281 
91 1 2.80168 1.9709 7.94139 
92 1 -2.79016 5.87562 5.64906 
93 1 4.62085 4.53893 5.64064 
94 1 2.77339 -1.94043 7.93563 
95 1 0.943725 5.21532 6.79208 
96 1 6.43698 5.25246 2.26285 
98 4 6.046e-05 7.84243 4.52783 
99 4 3.69695 5.22826 -8.04737e-08 
100 4 -3.69689 2.61417 4.52783 
102 4 1.84851 2.61417 4.52783 
103 4 5.54546 7.84243 4.52783 
104 4 9.24235 5.22826 2.38899e-08 
ITEM: TIMESTEP
400
ITEM: NUMBER OF ATOMS
104
ITEM: BOX BOUNDS xy xz yz pp pp pp
-7.39379 11.0908 -3.69689
-5.22817 10.4565 -3.69689
0 9.05566 -5.22817
ITEM: ATOMS id type x y z 
97 4 1.45522e-07 -3.91884e-07 3.04407e-07 
101 4 5.5454 -5.25199e-07 -1.03726e-07 
1 2 8.26683 1.99505 1.08859 
2 2 2.72064 5.89683 3.34143 
3 2 -2.7364 7.9077 2.27434 
4 2 -0.86961 2.667 6.80281 
5 2 -0.891881 -3.31355 7.86068 
6 2 4.68354 0.618252 5.61512 
7 2 4.5889 8.54189 1.19498 
8 2 -0.986521 4.61009 3.44055 
9 2 4.56663 2.56135 2.25285 
10 2 6.43342 -2.67936 6.78131 
11 2 -4.56981 3.2333 7.96707 
12 2 0.976371 -0.668491 5.71422 
13 2 -2.71428 3.07487 7.18291 
14 2 0.194114 1.04906 6.34465 
15 2 0.86414 -1.76826 4.13572 
16 2 -1.92159 8.14332 0.521233 
17 2 5.42479 -1.07656 6.40931 
18 2 -2.77671 -3.14242 7.24363 
19 2 4.62184 1.69485 3.9963 
20 2 3.81546 2.39403 0.383118 
21 2 3.75393 7.1484 2.26483 
22 2 -2.03779 3.40074 2.25952 
23 2 8.3823 0.0764226 0.91368 
24 2 0.864829 5.14248 3.61508 
25 2 6.4113 2.15348 1.87275 
26 2 3.5029 4.17928 2.71101 
27 2 2.83288 6.99661 4.91994 
28 2 5.61861 -2.91497 8.53442 
29 2 -1.72778 6.3049 2.64636 
30 2 6.47373 8.37077 1.81204 
31 2 -0.924822 3.5335 5.05936 
32 2 -0.118445 2.83431 8.67255 
33 2 -0.0569143 -1.92005 6.79084 
34 2 5.7348 1.8276 6.79615 
35 2 -4.68528 5.15192 8.14198 
36 2 2.83219 0.0858678 5.44058 
37 3 0.0893066 3.04484 3.446 
38 3 2.84266 9.02238 0.976782 
39 3 -0.630892 5.11276 1.6486 
40 3 8.82058 -1.45443 2.89188 
41 3 1.33433 0.630086 4.38804 
42 3 0.166967 9.37817 0.0890066 
43 3 -4.31351 1.42239 8.24959 
44 3 -0.858505 -0.920367 5.30158 
45 3 2.77825 2.49207 2.71017 
46 3 5.09008 0.89192 1.73086 
47 3 -4.28108 -1.41878 8.14555 
48 3 7.54226 -1.92389 5.45066 
49 3 1.68201 7.38419 3.54809 
50 3 -0.990572 1.51562 1.07772 
51 3 7.90608 1.50397 2.87758 
52 3 2.46522 5.24354 1.63277 
53 3 4.14984 -0.668365 4.43714 
54 3 1.69743 1.14618 0.136479 
55 3 6.46421 0.976717 5.33623 
56 3 -1.2667 -1.50034 8.28451 
57 3 -0.996143 7.97406 2.7991 
58 3 0.423005 -0.837185 1.81936 
59 3 -1.93672 1.89281 5.43818 
60 3 -1.22076 1.37086 8.13303 
61 3 3.60771 2.1835 5.60966 
62 3 0.854355 -3.79403 8.07888 
63 3 4.32791 0.115581 7.40706 
64 3 -5.12357 6.68278 6.16378 
65 3 2.36268 4.59826 4.66762 
66 3 3.53005 -4.14982 8.96666 
67 3 8.01053 3.80596 0.806076 
68 3 4.55552 6.14871 3.75408 
69 3 0.918759 2.73627 6.3455 
70 3 -1.39306 4.33643 7.3248 
71 3 7.97809 6.64713 0.910108 
72 3 -3.84525 7.15223 3.605 
73 3 2.01501 -2.15584 5.50757 
74 3 4.68759 3.71272 7.97794 
75 3 -4.20906 3.72437 6.17809 
76 3 1.2318 -0.0151964 7.42289 
77 3 -0.452822 5.89671 4.61853 
78 3 1.99959 4.08217 8.91918 
79 3 -2.76719 4.25163 3.71943 
80 3 4.96372 6.72868 0.771153 
81 3 4.69316 -2.74572 6.25656 
82 3 3.27401 6.06553 7.2363 
83 3 5.63373 3.33554 3.61748 
84 3 4.91777 3.85749 0.922639 
85 1 0.90087 3.2594 1.11765 
86 1 6.47376 -0.65201 3.39838 
87 1 -0.926211 0.682042 3.41121 
88 1 0.921698 7.18362 1.12951 
89 1 2.76739 0.00249149 2.26156 
90 1 -2.74734 -0.0202002 6.79065 
91 1 2.79614 1.96894 7.93801 
92 1 -2.77674 5.88036 5.65728 
93 1 4.62322 4.5463 5.64445 
94 1 2.77532 -1.95527 7.92615 
95 1 0.929622 5.22585 6.7941 
96 1 6.44435 5.24855 2.26501 
98 4 6.08096e-05 7.84243 4.52783 
99 4 3.69695 5.22826 -3.13181e-07 
100 4 -3.69689 2.61417 4.52783 
102 4 1.84851 2.61417 4.52783 
103 4 5.54546 7.84243 4.52783 
104 4 9.24235 5.22826 2.79025e-07 
ITEM: TIMESTEP
500
ITEM: NUMBER OF ATOMS
104
ITEM: BOX BOUNDS xy xz yz pp pp pp
-7.39379 11.0908 -3.69689
-5.22817 10.4565 -3.69689
0 9.05566 -5.22817
ITEM: ATOMS id type x y z 
97 4 5.31283e-07 -2.57114e-06 1.1981e-06 
101 4 5.5454 -3.08257e-06 -1.13454e-06 
1 2 8.32645 1.97074 1.08831 
2 2 2.78389 5.9115 3.36423 
3 2 -2.74459 7.85945 2.23242 
4 2 -0.916149 2.64286 6.75827 
5 2 -0.90975 -3.24539 7.88984 
6 2 4.63364 0.675007 5.62467 
7 2 4.60678 8.47374 1.16583 
8 2 -0.936617 4.55332 3.431 
9 2 4.61319 2.58547 2.29741 
10 2 6.44162 -2.63112 6.82323 
11 2 -4.62942 3.25761 7.96734 
12 2 0.913131 -0.683175 5.69142 
13 2 -2.78146 3.12883 7.25344 
14 2 0.135232 1.02826 6.30867 
15 2 0.924709 -1.82441 4.06113 
16 2 -1.94233 8.13603 0.508449 
17 2 5.35085 -1.03407 6.33772 
18 2 -2.78556 -3.07699 7.2687 
19 2 4.61584 1.72066 4.01866 
20 2 3.87856 2.35577 0.456082 
21 2 3.78245 7.13039 2.25629 
22 2 -1.98946 3.34937 2.2586 
23 2 8.31939 -0.014425 0.901489 
24 2 0.927328 5.22506 3.61909 
25 2 6.4785 2.09951 1.8022 
26 2 3.5618 4.20006 2.74696 
27 2 2.77232 7.05275 4.99451 
28 2 5.63936 -2.9077 8.54719 
29 2 -1.65382 6.2624 2.71797 
30 2 6.4826 8.30532 1.78698 
31 2 -0.918814 3.50767 5.03702 
32 2 -0.181534 2.87256 8.59961 
33 2 -0.0854386 -1.90203 6.79937 
34 2 5.68647 1.87898 6.79707 
35 2 -4.62237 5.24277 8.15417 
36 2 2.76969 0.00329051 5.43657 
37 3 0.170505 3.0035 3.50342 
38 3 2.83298 9.05225 0.982931 
39 3 -0.649338 5.15898 1.61104 
40 3 8.81647 -1.50216 2.93193 
41 3 1.38631 0.66742 4.36567 
42 3 0.199549 9.37536 0.0939015 
43 3 -4.35527 1.39848 8.29037 
44 3 -0.924805 -1.00174 5.27917 
45 3 2.77289 2.48279 2.76829 
46 3 5.07377 0.872119 1.70788 
47 3 -4.33275 -1.35173 8.21375 
48 3 7.56082 -1.93869 5.39521 
49 3 1.64845 7.38635 3.54054 
50 3 -0.920532 1.45503 1.02084 
51 3 7.86003 1.50908 2.91612 
52 3 2.50652 5.2655 1.59663 
53 3 4.16563 -0.696036 4.43477 
54 3 1.68244 1.08807 0.153576 
55 3 6.47305 1.02613 5.29905 
56 3 -1.21221 -1.41109 8.31016 
57 3 -0.982635 7.99322 2.82245 
58 3 0.43115 -0.825209 1.75801 
59 3 -2.01546 1.92287 5.37165 
60 3 -1.20412 1.3577 8.19741 
61 3 3.52651 2.22484 5.55224 
62 3 0.864039 -3.82391 8.07273 
63 3 4.34635 0.0693596 7.44462 
64 3 -5.11945 6.7305 6.12373 
65 3 2.3107 4.56093 4.69 
66 3 3.49746 -4.14701 8.96177 
67 3 8.05227 3.82987 0.765294 
68 3 4.62181 6.23009 3.7765 
69 3 0.924121 2.74555 6.28737 
70 3 -1.37676 4.35623 7.34778 
71 3 8.02976 6.58008 0.841906 
72 3 -3.86381 7.16704 3.66045 
73 3 2.04856 -2.15801 5.51512 
74 3 4.61755 3.77332 8.03482 
75 3 -4.16302 3.71927 6.13954 
76 3 1.1905 -0.0371588 7.45903 
77 3 -0.468619 5.92438 4.62088 
78 3 2.01457 4.14028 8.90208 
79 3 -2.77604 4.20222 3.75661 
80 3 4.90922 6.63944 0.745499 
81 3 4.67965 -2.76487 6.23322 
82 3 3.26587 6.05356 7.29765 
83 3 5.71246 3.30548 3.68402 
84 3 4.90112 3.87065 0.858262 
85 1 0.913552 3.26388 1.12542 
86 1 6.48138 -0.649305 3.40305 
87 1 -0.923361 0.669796 3.40309 
88 1 0.920665 7.17696 1.1257 
89 1 2.76079 0.00644972 2.26071 
90 1 -2.75879 -0.0110078 6.79349 
91 1 2.78346 1.96447 7.93024 
92 1 -2.78436 5.87765 5.65261 
93 1 4.62038 4.55855 5.65257 
94 1 2.77635 -1.94862 7.92996 
95 1 0.936223 5.22189 6.79496 
96 1 6.4558 5.23936 2.26218 
98 4 6.30797e-05 7.84243 4.52783 
99 4 3.69695 5.22826 -1.37742e-06 
100 4 -3.69689 2.61418 4.52783 
102 4 1.84851 2.61417 4.52783 
103 4 5.54546 7.84244 4.52783 
104 4 9.24235 5.22826 1.07656e-06 
ITEM: TIMESTEP
600
ITEM: NUMBER OF ATOMS
104
ITEM: BOX BOUNDS xy xz yz pp pp pp
-7.39379 11.0908 -3.69689
-5.22817 10.4565 -3.69689
0 9.05566 -5.22817
ITEM: ATOMS id type x y z 
97 4 1.53247e-06 -1.44273e-05 7.82749e-06 
101 4 5.5454 -1.48379e-05 -5.49128e-06 
1 2 8.26824 1.98214 1.13202 
2 2 2.71401 5.86283 3.36823 
3 2 -2.7662 7.88381 2.29868 
4 2 -0.873317 2.63405 6.83152 
5 2 -0.926382 -3.31704 7.884 
6 2 4.67763 0.624769 5.65611 
7 2 4.62348 8.54541 1.17169 
8 2 -0.980575 4.60347 3.3996 
9 2 4.57043 2.59424 2.22425 
10 2 6.4633 -2.65554 6.75687 
11 2 -4.57112 3.24622 7.92359 
12 2 0.98304 -0.634568 5.68739 
13 2 -2.69716 3.14629 7.21109 
14 2 0.202473 1.052 6.34967 
15 2 0.926422 -1.81146 4.15611 
16 2 -2.05292 8.09679 0.44074 
17 2 5.36317 -1.12029 6.38016 
18 2 -2.78398 -3.16066 7.23406 
19 2 4.6225 1.84673 4.07718 
20 2 3.87133 2.35504 0.354149 
21 2 3.89189 7.04523 2.26873 
22 2 -2.05676 3.40974 2.25313 
23 2 8.31753 0.0752862 0.865462 
24 2 0.84137 5.19287 3.66396 
25 2 6.3943 2.082 1.84444 
26 2 3.49461 4.17624 2.70588 
27 2 2.77066 7.03976 4.89943 
28 2 5.75001 -2.86847 8.61479 
29 2 -1.66607 6.34854 2.67562 
30 2 6.48111 8.38896 1.82171 
31 2 -0.92543 3.38155 4.9786 
32 2 -0.174253 2.87326 8.70164 
33 2 -0.194884 -1.81686 6.78693 
34 2 5.75374 1.81864 6.80254 
35 2 -4.62053 5.15305 8.1902 
36 2 2.85567 0.0355153 5.39171 
37 3 0.138559 3.07171 3.52199 
38 3 2.83218 9.00823 0.999047 
39 3 -0.702181 5.20129 1.69193 
40 3 8.82059 -1.49817 2.91613 
41 3 1.44235 0.610684 4.43445 
42 3 0.157192 9.37704 0.110539 
43 3 -4.35373 1.41572 8.27711 
44 3 -0.847783 -1.00611 5.29153 
45 3 2.78383 2.49626 2.75701 
46 3 5.08894 0.879643 1.75903 
47 3 -4.3672 -1.40394 8.15492 
48 3 7.49389 -2.01729 5.4002 
49 3 1.69881 7.402 3.52944 
50 3 -1.00455 1.46536 1.007 
51 3 7.8048 1.54459 2.83632 
52 3 2.50739 5.25617 1.61507 
53 3 4.15778 -0.655137 4.41336 
54 3 1.7509 1.05122 0.0821722 
55 3 6.46337 1.02018 5.31139 
56 3 -1.17554 -1.47761 8.29456 
57 3 -0.982418 7.97657 2.78002 
58 3 0.428947 -0.84264 1.77099 
59 3 -1.98171 1.96642 5.4272 
60 3 -1.15613 1.45123 8.19242 
61 3 3.55846 2.1566 5.53367 
62 3 0.864863 -3.77988 8.05663 
63 3 4.39918 0.0270307 7.36373 
64 3 -5.12356 6.72653 6.13953 
65 3 2.25466 4.61767 4.62126 
66 3 3.53981 -4.14869 8.94517 
67 3 8.0507 3.81264 0.778576 
68 3 4.54478 6.23449 3.76416 
69 3 0.913173 2.73207 6.29863 
70 3 -1.39191 4.34872 7.29661 
71 3 8.06417 6.6323 0.900693 
72 3 -3.7969 7.24568 3.65541 
73 3 1.99821 -2.17369 5.52621 
74 3 4.70158 3.76299 8.04866 
75 3 -4.10776 3.68377 6.21934 
76 3 1.1896 -0.0278508 7.44059 
77 3 -0.460766 5.88349 4.64225 
78 3 1.94611 4.17713 8.97344 
79 3 -2.76638 4.2082 3.74425 
80 3 4.87252 6.70596 0.761072 
81 3 4.67942 -2.74824 6.27566 
82 3 3.26807 6.071 7.28469 
83 3 5.6787 3.26196 3.62851 
84 3 4.8531 3.77713 0.863294 
85 1 0.887217 3.2546 1.10931 
86 1 6.46967 -0.653452 3.3959 
87 1 -0.926099 0.700737 3.42044 
88 1 0.922357 7.18849 1.12923 
89 1 2.7697 -0.00135655 2.26364 
90 1 -2.73098 -0.0330246 6.79153 
91 1 2.80978 1.97374 7.94635 
92 1 -2.77265 5.88181 5.65976 
93 1 4.62312 4.52762 5.63522 
94 1 2.77464 -1.96015 7.92644 
95 1 0.927323 5.22969 6.79203 
96 1 6.42797 5.26139 2.26413 
98 4 7.54142e-05 7.84243 4.52784 
99 4 3.69694 5.22825 -7.65418e-06 
100 4 -3.69689 2.61419 4.52782 
102 4 1.84852 2.61418 4.52782 
103 4 5.54547 7.84245 4.52784 
104 4 9.24234 5.22826 1.19792e-05 
ITEM: TIMESTEP
700
ITEM: NUMBER OF ATOMS
104
ITEM: BOX BOUNDS xy xz yz pp pp pp
-7.39379 11.0908 -3.69689
-5.22817 10.4565 -3.69689
0 9.05566 -5.22817
ITEM: ATOMS id type x y z 
97 4 2.78039e-05 -5.94449e-05 3.49601e-05 
101 4 5.54543 -6.09601e-05 -1.92222e-05 
1 2 8.36722 1.98448 1.12441 
2 2 2.82869 5.88427 3.38394 
3 2 -2.79399 7.84095 2.21301 
4 2 -0.934145 2.59321 6.73947 
5 2 -0.93934 -3.22287 7.90227 
6 2 4.62327 0.703867 5.64883 
7 2 4.63679 8.45131 1.15364 
8 2 -0.9262 4.52413 3.40708 
9 2 4.63158 2.63481 2.31653 
10 2 6.49146 -2.61288 6.84229 
11 2 -4.66984 3.244 7.93104 
12 2 0.868437 -0.65634 5.67142 
13 2 -2.72094 3.2285 7.20859 
14 2 0.281996 1.07975 6.39797 
15 2 0.955876 -1.89241 4.16095 
16 2 -2.12287 8.07191 0.397467 
17 2 5.27941 -1.11812 6.39152 
18 2 -2.77186 -3.22353 7.19412 
19 2 4.62973 1.90206 4.12255 
20 2 3.96116 2.35162 0.363769 
21 2 3.95684 7.01569 2.26797 
22 2 -2.11519 3.45595 2.2648 
23 2 8.29962 0.0368272 0.79198 
24 2 0.877359 5.24044 3.73136 
25 2 6.41846 1.99954 1.84662 
26 2 3.41544 4.14825 2.65708 
27 2 2.74152 7.12046 4.89424 
28 2 5.8201 -2.84377 8.65779 
29 2 -1.58196 6.34609 2.66457 
30 2 6.46933 8.45159 1.86217 
31 2 -0.932484 3.32615 4.93347 
32 2 -0.263752 2.87646 8.69238 
33 2 -0.259916 -1.78721 6.78769 
34 2 5.81213 1.77253 6.79086 
35 2 -4.60254 5.19148 8.26367 
36 2 2.8198 -0.0120485 5.32434 
37 3 0.0844792 3.03782 3.48359 
38 3 2.85251 8.97013 1.02414 
39 3 -0.65321 5.18205 1.76398 
40 3 8.82447 -1.51728 2.79754 
41 3 1.40601 0.51923 4.44115 
42 3 0.123391 9.35058 0.126242 
43 3 -4.37244 1.51417 8.21078 
44 3 -0.851494 -0.947759 5.31861 
45 3 2.8769 2.54264 2.70944 
46 3 5.07363 0.888655 1.799 
47 3 -4.30956 -1.44 8.1609 
48 3 7.42761 -1.99419 5.45459 
49 3 1.73064 7.39885 3.49946 
50 3 -0.997319 1.52445 1.0407 
51 3 7.83793 1.50998 2.76183 
52 3 2.52146 5.24777 1.72826 
53 3 4.16709 -0.60648 4.4063 
54 3 1.81706 1.11118 0.0805699 
55 3 6.35873 1.00376 5.36834 
56 3 -1.24091 -1.486 8.25987 
57 3 -0.99346 7.9872 2.73715 
58 3 0.41482 -0.952519 1.81731 
59 3 -1.93337 1.92404 5.4276 
60 3 -1.20601 1.51221 8.13299 
61 3 3.61256 2.1904 5.57209 
62 3 0.844604 -3.74177 8.03154 
63 3 4.3502 0.0461339 7.29163 
64 3 -5.12733 6.74567 6.25808 
65 3 2.29099 4.70913 4.61476 
66 3 3.57362 -4.12223 8.92968 
67 3 8.06926 3.71421 0.844952 
68 3 4.54843 6.17624 3.7371 
69 3 0.820063 2.68557 6.34612 
70 3 -1.37655 4.33983 7.25654 
71 3 8.00641 6.66833 0.894604 
72 3 -3.73074 7.22272 3.60082 
73 3 1.96638 -2.17062 5.55619 
74 3 4.69443 3.70389 8.01492 
75 3 -4.14077 3.71842 6.29389 
76 3 1.17552 -0.0195726 7.32745 
77 3 -0.470061 5.83482 4.64911 
78 3 1.87993 4.11719 8.97484 
79 3 -2.6618 4.22475 3.68726 
80 3 4.93777 6.71438 0.795744 
81 3 4.69038 -2.75894 6.31863 
82 3 3.28231 6.18096 7.23846 
83 3 5.63033 3.30448 3.62824 
84 3 4.9028 3.71621 0.922918 
85 1 0.896234 3.25776 1.1148 
86 1 6.49862 -0.643181 3.41358 
87 1 -0.924986 0.680799 3.41102 
88 1 0.921989 7.15866 1.11657 
89 1 2.74518 0.0196603 2.26112 
90 1 -2.74779 -0.0185565 6.79137 
91 1 2.80071 1.97055 7.94083 
92 1 -2.8016 5.87162 5.64208 
93 1 4.62201 4.54762 5.64466 
94 1 2.77493 -1.93035 7.9391 
95 1 0.951881 5.20865 6.79454 
96 1 6.44468 5.24699 2.26429 
98 4 0.000122107 7.84243 4.52786 
99 4 3.69689 5.22823 -2.2493e-05 
100 4 -3.69689 2.61425 4.5278 
102 4 1.84857 2.61417 4.52779 
103 4 5.54548 7.8425 4.52786 
104 4 9.24228 5.22823 2.83511e-05 
ITEM: TIMESTEP
800
ITEM: NUMBER OF ATOMS
104
ITEM: BOX BOUNDS xy xz yz pp pp pp
-7.39379 11.0908 -3.69689
-5.22817 10.4565 -3.69689
0 9.05566 -5.22817
ITEM: ATOMS id type x y z 
97 4 7.98064e-05 -0.000249182 0.000166543 
101 4 5.54543 -0.000207067 -0.000101209 
1 2 8.28091 2.01267 1.20743 
2 2 2.75346 5.81973 3.41692 
3 2 -2.84569 7.88089 2.31683 
4 2 -0.904946 2.56521 6.83713 
5 2 -0.955106 -3.3368 7.93959 
6 2 4.65283 0.605292 5.714 
7 2 4.65401 8.56559 1.11702 
8 2 -0.955078 4.62103 3.34257 
9 2 4.60409 2.66199 2.22056 
10 2 6.54446 -2.65408 6.73682 
11 2 -4.58173 3.21588 7.84749 
12 2 0.944082 -0.593258 5.63778 
13 2 -2.82277 3.21159 7.13891 
14 2 0.245759 1.06596 6.37338 
15 2 0.858656 -1.94668 4.10505 
16 2 -2.18226 8.05021 0.359878 
17 2 5.28215 -1.02434 6.46853 
18 2 -2.75148 -3.21133 7.21859 
19 2 4.62663 1.95583 4.16012 
20 2 3.96889 2.44746 0.450742 
21 2 4.01097 6.97976 2.26207 
22 2 -2.0839 3.46143 2.27285 
23 2 8.40659 -0.0192818 0.783501 
24 2 0.995638 5.18896 3.72218 
25 2 6.52197 2.01601 1.91378 
26 2 3.45338 4.16112 2.67874 
27 2 2.84 7.17459 4.94808 
28 2 5.8807 -2.82327 8.69347 
29 2 -1.5838 6.25081 2.59008 
30 2 6.45032 8.43812 1.8403 
31 2 -0.927762 3.27168 4.89784 
32 2 -0.270854 2.77946 8.60753 
33 2 -0.314545 -1.75077 6.79354 
34 2 5.78046 1.76752 6.78276 
35 2 -4.70979 5.24716 8.27209 
36 2 2.70201 0.040184 5.33348 
37 3 0.148885 3.05198 3.53104 
38 3 2.8149 8.90964 1.03658 
39 3 -0.704454 5.17531 1.6633 
40 3 8.7559 -1.4412 2.85366 
41 3 1.41565 0.63328 4.44841 
42 3 0.0857661 9.35535 0.177239 
43 3 -4.2844 1.4752 8.26132 
44 3 -0.862814 -1.01618 5.28479 
45 3 2.8104 2.45229 2.6688 
46 3 5.09532 0.860667 1.8526 
47 3 -4.37465 -1.39022 8.17475 
48 3 7.53288 -2.01427 5.40359 
49 3 1.76856 7.44781 3.48216 
50 3 -0.983582 1.45661 0.994869 
51 3 7.82255 1.56207 2.8672 
52 3 2.4238 5.27984 1.66845 
53 3 4.13616 -0.570389 4.35138 
54 3 1.71468 1.06333 0.0865966 
55 3 6.41741 0.924677 5.30567 
56 3 -1.17425 -1.45413 8.29278 
57 3 -0.962552 7.97999 2.68272 
58 3 0.466966 -0.863392 1.85351 
59 3 -1.99746 1.96641 5.41604 
60 3 -1.14399 1.42373 8.17113 
61 3 3.5481 2.17562 5.52489 
62 3 0.882455 -3.68137 8.01925 
63 3 4.40137 0.0522627 7.39244 
64 3 -5.05835 6.66967 6.20155 
65 3 2.28138 4.59522 4.60844 
66 3 3.61127 -4.12702 8.8794 
67 3 7.98041 3.75331 0.794974 
68 3 4.55962 6.24513 3.77108 
69 3 0.886106 2.77555 6.38614 
70 3 -1.39798 4.36823 7.20257 
71 3 8.07091 6.61874 0.880034 
72 3 -3.83635 7.24362 3.65077 
73 3 1.92854 -2.21987 5.57338 
74 3 4.6812 3.77194 8.0605 
75 3 -4.12481 3.66653 6.18841 
76 3 1.27319 -0.0521053 7.38761 
77 3 -0.439002 5.7987 4.70338 
78 3 1.98219 4.16499 8.96786 
79 3 -2.72087 4.30456 3.7494 
80 3 4.87059 6.68254 0.762596 
81 3 4.6592 -2.75204 6.37353 
82 3 3.23037 6.09246 7.20286 